ITEM: TIMESTEP
0
ITEM: NUMBER OF ATOMS
1386
ITEM: BOX BOUNDS pp pp ff
0.0000000000000000e+00 2.1402000000000001e+01
0.0000000000000000e+00 2.8536000000000001e+01
-8.0000000000000000e+01 1.0738700000000000e+02
ITEM: ATOMS id type x y z
1153 1 0 0.8917 -10.201
1161 1 1.2611 1.7834 -10.201
1162 1 2.5223 0.8917 -7.6787
1163 1 2.5223 0.8917 -10.201
1164 1 2.5223 0 -8.9399
1168 1 1.2611 2.6752 -8.9399
1165 1 3.7834 1.7834 -10.2009
1166 1 5.0445 0.8917 -10.201
1170 1 3.7834 2.6752 -8.9399
1223 1 3.7834 1.7834 -7.6788
1224 1 5.0445 0 -8.9399
1225 1 5.0445 0.8917 -7.6787
1227 1 6.3056 1.7834 -7.6787
1228 1 6.3056 1.7834 -10.201
1239 1 6.3056 2.6752 -8.9399
1229 1 7.5668 0.8917 -10.201
1230 1 7.5668 0 -8.9399
1231 1 8.8279 1.7834 -10.2009
1312 1 7.5668 0.8917 -7.6787
1313 1 8.8279 1.7834 -7.6788
1314 1 10.089 0 -8.9399
1315 1 10.089 0.8917 -10.201
1322 1 8.8279 2.6752 -8.9399
1316 1 11.3501 1.7834 -10.201
1154 1 0 4.4587 -10.201
1167 1 1.2611 5.3504 -10.201
1169 1 2.5223 4.4587 -7.6787
1171 1 2.5223 4.4587 -10.201
1172 1 2.5223 3.567 -8.9399
1176 1 1.2611 6.2422 -8.9399
1173 1 3.7834 5.3504 -10.2009
1174 1 5.0445 4.4587 -10.201
1178 1 3.7834 6.2422 -8.9399
1232 1 3.7834 5.3504 -7.6788
1233 1 5.0445 3.567 -8.9399
1235 1 5.0445 4.4587 -7.6787
1237 1 6.3056 5.3504 -7.6787
1238 1 6.3056 5.3504 -10.201
1250 1 6.3056 6.2422 -8.9399
1240 1 7.5668 4.4587 -10.201
1241 1 7.5668 3.567 -8.9399
1242 1 8.8279 5.3504 -10.2009
1321 1 7.5668 4.4587 -7.6787
1323 1 8.8279 5.3504 -7.6788
1324 1 10.089 3.567 -8.9399
1325 1 10.089 4.4587 -10.201
1332 1 8.8279 6.2422 -8.9399
1326 1 11.3501 5.3504 -10.201
1155 1 0 8.0257 -10.201
1175 1 1.2611 8.9174 -10.201
1177 1 2.5223 8.0257 -7.6787
1179 1 2.5223 8.0257 -10.201
1180 1 2.5223 7.134 -8.9399
1184 1 1.2611 9.8092 -8.9399
1181 1 3.7834 8.9174 -10.2009
1182 1 5.0445 8.0257 -10.201
1186 1 3.7834 9.8092 -8.9399
1243 1 3.7834 8.9174 -7.6788
1244 1 5.0445 7.134 -8.9399
1246 1 5.0445 8.0257 -7.6787
1248 1 6.3056 8.9174 -7.6787
1249 1 6.3056 8.9174 -10.201
1261 1 6.3056 9.8092 -8.9399
1251 1 7.5668 8.0257 -10.201
1252 1 7.5668 7.134 -8.9399
1253 1 8.8279 8.9174 -10.2009
1331 1 7.5668 8.0257 -7.6787
1333 1 8.8279 8.9174 -7.6788
1334 1 10.089 7.134 -8.9399
1335 1 10.089 8.0257 -10.201
1342 1 8.8279 9.8092 -8.9399
1336 1 11.3501 8.9174 -10.201
1156 1 0 11.5927 -10.201
1183 1 1.2611 12.4845 -10.201
1185 1 2.5223 11.5927 -7.6787
1187 1 2.5223 11.5927 -10.201
1188 1 2.5223 10.701 -8.9399
1192 1 1.2611 13.3762 -8.9399
1189 1 3.7834 12.4845 -10.2009
1190 1 5.0445 11.5927 -10.201
1194 1 3.7834 13.3762 -8.9399
1254 1 3.7834 12.4845 -7.6788
1255 1 5.0445 10.701 -8.9399
1257 1 5.0445 11.5927 -7.6787
1259 1 6.3056 12.4845 -7.6787
1260 1 6.3056 12.4845 -10.201
1272 1 6.3056 13.3762 -8.9399
1262 1 7.5668 11.5927 -10.201
1263 1 7.5668 10.701 -8.9399
1264 1 8.8279 12.4845 -10.2009
1341 1 7.5668 11.5927 -7.6787
1343 1 8.8279 12.4845 -7.6788
1344 1 10.089 10.701 -8.9399
1345 1 10.089 11.5927 -10.201
1352 1 8.8279 13.3762 -8.9399
1346 1 11.3501 12.4845 -10.201
1157 1 0 15.1597 -10.201
1191 1 1.2611 16.0514 -10.201
1193 1 2.5223 15.1597 -7.6787
1195 1 2.5223 15.1597 -10.201
1196 1 2.5223 14.268 -8.9399
1200 1 1.2611 16.9432 -8.9399
1197 1 3.7834 16.0514 -10.2009
1198 1 5.0445 15.1597 -10.201
1202 1 3.7834 16.9432 -8.9399
1265 1 3.7834 16.0514 -7.6788
1266 1 5.0445 14.268 -8.9399
1268 1 5.0445 15.1597 -7.6787
1270 1 6.3056 16.0514 -7.6787
1271 1 6.3056 16.0514 -10.201
1283 1 6.3056 16.9432 -8.9399
1273 1 7.5668 15.1597 -10.201
1274 1 7.5668 14.268 -8.9399
1275 1 8.8279 16.0514 -10.2009
1351 1 7.5668 15.1597 -7.6787
1353 1 8.8279 16.0514 -7.6788
1354 1 10.089 14.268 -8.9399
1355 1 10.089 15.1597 -10.201
1362 1 8.8279 16.9432 -8.9399
1356 1 11.3501 16.0514 -10.201
1158 1 0 18.7267 -10.201
1199 1 1.2611 19.6184 -10.201
1201 1 2.5223 18.7267 -7.6787
1203 1 2.5223 18.7267 -10.201
1204 1 2.5223 17.835 -8.9399
1208 1 1.2611 20.5102 -8.9399
1205 1 3.7834 19.6184 -10.2009
1206 1 5.0445 18.7267 -10.201
1210 1 3.7834 20.5102 -8.9399
1276 1 3.7834 19.6184 -7.6788
1277 1 5.0445 17.835 -8.9399
1279 1 5.0445 18.7267 -7.6787
1281 1 6.3056 19.6184 -7.6787
1282 1 6.3056 19.6184 -10.201
1294 1 6.3056 20.5102 -8.9399
1284 1 7.5668 18.7267 -10.201
1285 1 7.5668 17.835 -8.9399
1286 1 8.8279 19.6184 -10.2009
1361 1 7.5668 18.7267 -7.6787
1363 1 8.8279 19.6184 -7.6788
1364 1 10.089 17.835 -8.9399
1365 1 10.089 18.7267 -10.201
1372 1 8.8279 20.5102 -8.9399
1366 1 11.3501 19.6184 -10.201
1159 1 0 22.2937 -10.201
1207 1 1.2611 23.1854 -10.201
1209 1 2.5223 22.2937 -7.6787
1211 1 2.5223 22.2937 -10.201
1212 1 2.5223 21.402 -8.9399
1216 1 1.2611 24.0772 -8.9399
1213 1 3.7834 23.1854 -10.2009
1214 1 5.0445 22.2937 -10.201
1218 1 3.7834 24.0772 -8.9399
1287 1 3.7834 23.1854 -7.6788
1288 1 5.0445 21.402 -8.9399
1290 1 5.0445 22.2937 -7.6787
1292 1 6.3056 23.1854 -7.6787
1293 1 6.3056 23.1854 -10.201
1305 1 6.3056 24.0772 -8.9399
1295 1 7.5668 22.2937 -10.201
1296 1 7.5668 21.402 -8.9399
1297 1 8.8279 23.1854 -10.2009
1371 1 7.5668 22.2937 -7.6787
1373 1 8.8279 23.1854 -7.6788
1374 1 10.089 21.402 -8.9399
1375 1 10.089 22.2937 -10.201
1382 1 8.8279 24.0772 -8.9399
1376 1 11.3501 23.1854 -10.201
1160 1 0 25.8607 -10.201
1215 1 1.2611 26.7524 -10.201
1217 1 2.5223 25.8607 -7.6787
1219 1 2.5223 25.8607 -10.201
1220 1 2.5223 24.969 -8.9399
1221 1 3.7834 26.7524 -10.2009
1222 1 5.0445 25.8607 -10.201
1298 1 3.7834 26.7524 -7.6788
1299 1 5.0445 24.969 -8.9399
1301 1 5.0445 25.8607 -7.6787
1303 1 6.3056 26.7524 -7.6787
1304 1 6.3056 26.7524 -10.201
1306 1 7.5668 25.8607 -10.201
1307 1 7.5668 24.969 -8.9399
1308 1 8.8279 26.7524 -10.2009
1381 1 7.5668 25.8607 -7.6787
1383 1 8.8279 26.7524 -7.6788
1384 1 10.089 24.969 -8.9399
1385 1 10.089 25.8607 -10.201
1386 1 11.3501 26.7524 -10.201
1226 1 5.0446 0 -6.4176
1234 1 3.7834 2.6752 -6.4176
1309 1 5.0445 0.8917 -5.1565
1310 1 6.3056 1.7834 -5.1565
1318 1 6.3056 2.6752 -6.4176
1311 1 7.5667 0 -6.4176
1236 1 5.0446 3.567 -6.4176
1245 1 3.7834 6.2422 -6.4176
1317 1 5.0445 4.4587 -5.1565
1319 1 6.3056 5.3504 -5.1565
1328 1 6.3056 6.2422 -6.4176
1320 1 7.5667 3.567 -6.4176
1247 1 5.0446 7.134 -6.4176
1256 1 3.7834 9.8092 -6.4176
1327 1 5.0445 8.0257 -5.1565
1329 1 6.3056 8.9174 -5.1565
1338 1 6.3056 9.8092 -6.4176
1330 1 7.5667 7.134 -6.4176
1258 1 5.0446 10.701 -6.4176
1267 1 3.7834 13.3762 -6.4176
1337 1 5.0445 11.5927 -5.1565
1339 1 6.3056 12.4845 -5.1565
1348 1 6.3056 13.3762 -6.4176
1340 1 7.5667 10.701 -6.4176
1269 1 5.0446 14.268 -6.4176
1278 1 3.7834 16.9432 -6.4176
1347 1 5.0445 15.1597 -5.1565
1349 1 6.3056 16.0514 -5.1565
1358 1 6.3056 16.9432 -6.4176
1350 1 7.5667 14.268 -6.4176
1280 1 5.0446 17.835 -6.4176
1289 1 3.7834 20.5102 -6.4176
1357 1 5.0445 18.7267 -5.1565
1359 1 6.3056 19.6184 -5.1565
1368 1 6.3056 20.5102 -6.4176
1360 1 7.5667 17.835 -6.4176
1291 1 5.0446 21.402 -6.4176
1300 1 3.7834 24.0772 -6.4176
1367 1 5.0445 22.2937 -5.1565
1369 1 6.3056 23.1854 -5.1565
1378 1 6.3056 24.0772 -6.4176
1370 1 7.5667 21.402 -6.4176
1302 1 5.0446 24.969 -6.4176
1377 1 5.0445 25.8607 -5.1565
1379 1 6.3056 26.7524 -5.1565
1380 1 7.5667 24.969 -6.4176
1 1 0 0 0
2 1 0 1.7835 1.7835
3 1 1.7835 0 1.7835
4 1 1.7835 1.7835 0
5 1 0.89175 0.89175 0.89175
8 1 2.67525 2.67525 0.89175
9 1 3.567 0 0
10 1 3.567 1.7835 1.7835
11 1 5.3505 0 1.7835
12 1 5.3505 1.7835 0
13 1 4.45875 0.89175 0.89175
16 1 6.24225 2.67525 0.89175
17 1 7.134 0 0
18 1 7.134 1.7835 1.7835
19 1 8.9175 0 1.7835
20 1 8.9175 1.7835 0
21 1 8.02575 0.89175 0.89175
24 1 9.80925 2.67525 0.89175
25 1 10.701 0 0
26 1 10.701 1.7835 1.7835
27 1 12.4845 0 1.7835
28 1 12.4845 1.7835 0
29 1 11.5928 0.89175 0.89175
32 1 13.3763 2.67525 0.89175
33 1 14.268 0 0
34 1 14.268 1.7835 1.7835
35 1 16.0515 0 1.7835
36 1 16.0515 1.7835 0
37 1 15.1598 0.89175 0.89175
40 1 16.9432 2.67525 0.89175
41 1 17.835 0 0
42 1 17.835 1.7835 1.7835
43 1 19.6185 0 1.7835
44 1 19.6185 1.7835 0
45 1 18.7268 0.89175 0.89175
48 1 20.5102 2.67525 0.89175
49 1 0 3.567 0
50 1 0 5.3505 1.7835
51 1 1.7835 3.567 1.7835
52 1 1.7835 5.3505 0
53 1 0.89175 4.45875 0.89175
56 1 2.67525 6.24225 0.89175
57 1 3.567 3.567 0
58 1 3.567 5.3505 1.7835
59 1 5.3505 3.567 1.7835
60 1 5.3505 5.3505 0
61 1 4.45875 4.45875 0.89175
64 1 6.24225 6.24225 0.89175
65 1 7.134 3.567 0
66 1 7.134 5.3505 1.7835
67 1 8.9175 3.567 1.7835
68 1 8.9175 5.3505 0
69 1 8.02575 4.45875 0.89175
72 1 9.80925 6.24225 0.89175
73 1 10.701 3.567 0
74 1 10.701 5.3505 1.7835
75 1 12.4845 3.567 1.7835
76 1 12.4845 5.3505 0
77 1 11.5928 4.45875 0.89175
80 1 13.3763 6.24225 0.89175
81 1 14.268 3.567 0
82 1 14.268 5.3505 1.7835
83 1 16.0515 3.567 1.7835
84 1 16.0515 5.3505 0
85 1 15.1598 4.45875 0.89175
88 1 16.9432 6.24225 0.89175
89 1 17.835 3.567 0
90 1 17.835 5.3505 1.7835
91 1 19.6185 3.567 1.7835
92 1 19.6185 5.3505 0
93 1 18.7268 4.45875 0.89175
96 1 20.5102 6.24225 0.89175
97 1 0 7.134 0
98 1 0 8.9175 1.7835
99 1 1.7835 7.134 1.7835
100 1 1.7835 8.9175 0
101 1 0.89175 8.02575 0.89175
104 1 2.67525 9.80925 0.89175
105 1 3.567 7.134 0
106 1 3.567 8.9175 1.7835
107 1 5.3505 7.134 1.7835
108 1 5.3505 8.9175 0
109 1 4.45875 8.02575 0.89175
112 1 6.24225 9.80925 0.89175
113 1 7.134 7.134 0
114 1 7.134 8.9175 1.7835
115 1 8.9175 7.134 1.7835
116 1 8.9175 8.9175 0
117 1 8.02575 8.02575 0.89175
120 1 9.80925 9.80925 0.89175
121 1 10.701 7.134 0
122 1 10.701 8.9175 1.7835
123 1 12.4845 7.134 1.7835
124 1 12.4845 8.9175 0
125 1 11.5928 8.02575 0.89175
128 1 13.3763 9.80925 0.89175
129 1 14.268 7.134 0
130 1 14.268 8.9175 1.7835
131 1 16.0515 7.134 1.7835
132 1 16.0515 8.9175 0
133 1 15.1598 8.02575 0.89175
136 1 16.9432 9.80925 0.89175
137 1 17.835 7.134 0
138 1 17.835 8.9175 1.7835
139 1 19.6185 7.134 1.7835
140 1 19.6185 8.9175 0
141 1 18.7268 8.02575 0.89175
144 1 20.5102 9.80925 0.89175
145 1 0 10.701 0
146 1 0 12.4845 1.7835
147 1 1.7835 10.701 1.7835
148 1 1.7835 12.4845 0
149 1 0.89175 11.5928 0.89175
152 1 2.67525 13.3763 0.89175
153 1 3.567 10.701 0
154 1 3.567 12.4845 1.7835
155 1 5.3505 10.701 1.7835
156 1 5.3505 12.4845 0
157 1 4.45875 11.5928 0.89175
160 1 6.24225 13.3763 0.89175
161 1 7.134 10.701 0
162 1 7.134 12.4845 1.7835
163 1 8.9175 10.701 1.7835
164 1 8.9175 12.4845 0
165 1 8.02575 11.5928 0.89175
168 1 9.80925 13.3763 0.89175
169 1 10.701 10.701 0
170 1 10.701 12.4845 1.7835
171 1 12.4845 10.701 1.7835
172 1 12.4845 12.4845 0
173 1 11.5928 11.5928 0.89175
176 1 13.3763 13.3763 0.89175
177 1 14.268 10.701 0
178 1 14.268 12.4845 1.7835
179 1 16.0515 10.701 1.7835
180 1 16.0515 12.4845 0
181 1 15.1598 11.5928 0.89175
184 1 16.9432 13.3763 0.89175
185 1 17.835 10.701 0
186 1 17.835 12.4845 1.7835
187 1 19.6185 10.701 1.7835
188 1 19.6185 12.4845 0
189 1 18.7268 11.5928 0.89175
192 1 20.5102 13.3763 0.89175
193 1 0 14.268 0
194 1 0 16.0515 1.7835
195 1 1.7835 14.268 1.7835
196 1 1.7835 16.0515 0
197 1 0.89175 15.1598 0.89175
200 1 2.67525 16.9432 0.89175
201 1 3.567 14.268 0
202 1 3.567 16.0515 1.7835
203 1 5.3505 14.268 1.7835
204 1 5.3505 16.0515 0
205 1 4.45875 15.1598 0.89175
208 1 6.24225 16.9432 0.89175
209 1 7.134 14.268 0
210 1 7.134 16.0515 1.7835
211 1 8.9175 14.268 1.7835
212 1 8.9175 16.0515 0
213 1 8.02575 15.1598 0.89175
216 1 9.80925 16.9432 0.89175
217 1 10.701 14.268 0
218 1 10.701 16.0515 1.7835
219 1 12.4845 14.268 1.7835
220 1 12.4845 16.0515 0
221 1 11.5928 15.1598 0.89175
224 1 13.3763 16.9432 0.89175
225 1 14.268 14.268 0
226 1 14.268 16.0515 1.7835
227 1 16.0515 14.268 1.7835
228 1 16.0515 16.0515 0
229 1 15.1598 15.1598 0.89175
232 1 16.9432 16.9432 0.89175
233 1 17.835 14.268 0
234 1 17.835 16.0515 1.7835
235 1 19.6185 14.268 1.7835
236 1 19.6185 16.0515 0
237 1 18.7268 15.1598 0.89175
240 1 20.5102 16.9432 0.89175
241 1 0 17.835 0
242 1 0 19.6185 1.7835
243 1 1.7835 17.835 1.7835
244 1 1.7835 19.6185 0
245 1 0.89175 18.7268 0.89175
248 1 2.67525 20.5102 0.89175
249 1 3.567 17.835 0
250 1 3.567 19.6185 1.7835
251 1 5.3505 17.835 1.7835
252 1 5.3505 19.6185 0
253 1 4.45875 18.7268 0.89175
256 1 6.24225 20.5102 0.89175
257 1 7.134 17.835 0
258 1 7.134 19.6185 1.7835
259 1 8.9175 17.835 1.7835
260 1 8.9175 19.6185 0
261 1 8.02575 18.7268 0.89175
264 1 9.80925 20.5102 0.89175
265 1 10.701 17.835 0
266 1 10.701 19.6185 1.7835
267 1 12.4845 17.835 1.7835
268 1 12.4845 19.6185 0
269 1 11.5928 18.7268 0.89175
272 1 13.3763 20.5102 0.89175
273 1 14.268 17.835 0
274 1 14.268 19.6185 1.7835
275 1 16.0515 17.835 1.7835
276 1 16.0515 19.6185 0
277 1 15.1598 18.7268 0.89175
280 1 16.9432 20.5102 0.89175
281 1 17.835 17.835 0
282 1 17.835 19.6185 1.7835
283 1 19.6185 17.835 1.7835
284 1 19.6185 19.6185 0
285 1 18.7268 18.7268 0.89175
288 1 20.5102 20.5102 0.89175
289 1 0 21.402 0
290 1 0 23.1855 1.7835
291 1 1.7835 21.402 1.7835
292 1 1.7835 23.1855 0
293 1 0.89175 22.2938 0.89175
296 1 2.67525 24.0772 0.89175
297 1 3.567 21.402 0
298 1 3.567 23.1855 1.7835
299 1 5.3505 21.402 1.7835
300 1 5.3505 23.1855 0
301 1 4.45875 22.2938 0.89175
304 1 6.24225 24.0772 0.89175
305 1 7.134 21.402 0
306 1 7.134 23.1855 1.7835
307 1 8.9175 21.402 1.7835
308 1 8.9175 23.1855 0
309 1 8.02575 22.2938 0.89175
312 1 9.80925 24.0772 0.89175
313 1 10.701 21.402 0
314 1 10.701 23.1855 1.7835
315 1 12.4845 21.402 1.7835
316 1 12.4845 23.1855 0
317 1 11.5928 22.2938 0.89175
320 1 13.3763 24.0772 0.89175
321 1 14.268 21.402 0
322 1 14.268 23.1855 1.7835
323 1 16.0515 21.402 1.7835
324 1 16.0515 23.1855 0
325 1 15.1598 22.2938 0.89175
328 1 16.9432 24.0772 0.89175
329 1 17.835 21.402 0
330 1 17.835 23.1855 1.7835
331 1 19.6185 21.402 1.7835
332 1 19.6185 23.1855 0
333 1 18.7268 22.2938 0.89175
336 1 20.5102 24.0772 0.89175
337 1 0 24.969 0
338 1 0 26.7525 1.7835
339 1 1.7835 24.969 1.7835
340 1 1.7835 26.7525 0
341 1 0.89175 25.8608 0.89175
344 1 2.67525 27.6442 0.89175
345 1 3.567 24.969 0
346 1 3.567 26.7525 1.7835
347 1 5.3505 24.969 1.7835
348 1 5.3505 26.7525 0
349 1 4.45875 25.8608 0.89175
352 1 6.24225 27.6442 0.89175
353 1 7.134 24.969 0
354 1 7.134 26.7525 1.7835
355 1 8.9175 24.969 1.7835
356 1 8.9175 26.7525 0
357 1 8.02575 25.8608 0.89175
360 1 9.80925 27.6442 0.89175
361 1 10.701 24.969 0
362 1 10.701 26.7525 1.7835
363 1 12.4845 24.969 1.7835
364 1 12.4845 26.7525 0
365 1 11.5928 25.8608 0.89175
368 1 13.3763 27.6442 0.89175
369 1 14.268 24.969 0
370 1 14.268 26.7525 1.7835
371 1 16.0515 24.969 1.7835
372 1 16.0515 26.7525 0
373 1 15.1598 25.8608 0.89175
376 1 16.9432 27.6442 0.89175
377 1 17.835 24.969 0
378 1 17.835 26.7525 1.7835
379 1 19.6185 24.969 1.7835
380 1 19.6185 26.7525 0
381 1 18.7268 25.8608 0.89175
384 1 20.5102 27.6442 0.89175
6 1 0.89175 2.67525 2.67525
7 1 2.67525 0.89175 2.67525
385 1 0 0 3.567
386 1 0 1.7835 5.3505
387 1 1.7835 0 5.3505
388 1 1.7835 1.7835 3.567
389 1 0.89175 0.89175 4.45875
392 1 2.67525 2.67525 4.45875
14 1 4.45875 2.67525 2.67525
15 1 6.24225 0.89175 2.67525
393 1 3.567 0 3.567
394 1 3.567 1.7835 5.3505
395 1 5.3505 0 5.3505
396 1 5.3505 1.7835 3.567
397 1 4.45875 0.89175 4.45875
400 1 6.24225 2.67525 4.45875
22 1 8.02575 2.67525 2.67525
23 1 9.80925 0.89175 2.67525
401 1 7.134 0 3.567
402 1 7.134 1.7835 5.3505
403 1 8.9175 0 5.3505
404 1 8.9175 1.7835 3.567
405 1 8.02575 0.89175 4.45875
408 1 9.80925 2.67525 4.45875
30 1 11.5928 2.67525 2.67525
31 1 13.3763 0.89175 2.67525
409 1 10.701 0 3.567
410 1 10.701 1.7835 5.3505
411 1 12.4845 0 5.3505
412 1 12.4845 1.7835 3.567
413 1 11.5928 0.89175 4.45875
416 1 13.3763 2.67525 4.45875
38 1 15.1598 2.67525 2.67525
39 1 16.9432 0.89175 2.67525
417 1 14.268 0 3.567
418 1 14.268 1.7835 5.3505
419 1 16.0515 0 5.3505
420 1 16.0515 1.7835 3.567
421 1 15.1598 0.89175 4.45875
424 1 16.9432 2.67525 4.45875
46 1 18.7268 2.67525 2.67525
47 1 20.5102 0.89175 2.67525
425 1 17.835 0 3.567
426 1 17.835 1.7835 5.3505
427 1 19.6185 0 5.3505
428 1 19.6185 1.7835 3.567
429 1 18.7268 0.89175 4.45875
432 1 20.5102 2.67525 4.45875
54 1 0.89175 6.24225 2.67525
55 1 2.67525 4.45875 2.67525
433 1 0 3.567 3.567
434 1 0 5.3505 5.3505
435 1 1.7835 3.567 5.3505
436 1 1.7835 5.3505 3.567
437 1 0.89175 4.45875 4.45875
440 1 2.67525 6.24225 4.45875
62 1 4.45875 6.24225 2.67525
63 1 6.24225 4.45875 2.67525
441 1 3.567 3.567 3.567
442 1 3.567 5.3505 5.3505
443 1 5.3505 3.567 5.3505
444 1 5.3505 5.3505 3.567
445 1 4.45875 4.45875 4.45875
448 1 6.24225 6.24225 4.45875
70 1 8.02575 6.24225 2.67525
71 1 9.80925 4.45875 2.67525
449 1 7.134 3.567 3.567
450 1 7.134 5.3505 5.3505
451 1 8.9175 3.567 5.3505
452 1 8.9175 5.3505 3.567
453 1 8.02575 4.45875 4.45875
456 1 9.80925 6.24225 4.45875
78 1 11.5928 6.24225 2.67525
79 1 13.3763 4.45875 2.67525
457 1 10.701 3.567 3.567
458 1 10.701 5.3505 5.3505
459 1 12.4845 3.567 5.3505
460 1 12.4845 5.3505 3.567
461 1 11.5928 4.45875 4.45875
464 1 13.3763 6.24225 4.45875
86 1 15.1598 6.24225 2.67525
87 1 16.9432 4.45875 2.67525
465 1 14.268 3.567 3.567
466 1 14.268 5.3505 5.3505
467 1 16.0515 3.567 5.3505
468 1 16.0515 5.3505 3.567
469 1 15.1598 4.45875 4.45875
472 1 16.9432 6.24225 4.45875
94 1 18.7268 6.24225 2.67525
95 1 20.5102 4.45875 2.67525
473 1 17.835 3.567 3.567
474 1 17.835 5.3505 5.3505
475 1 19.6185 3.567 5.3505
476 1 19.6185 5.3505 3.567
477 1 18.7268 4.45875 4.45875
480 1 20.5102 6.24225 4.45875
102 1 0.89175 9.80925 2.67525
103 1 2.67525 8.02575 2.67525
481 1 0 7.134 3.567
482 1 0 8.9175 5.3505
483 1 1.7835 7.134 5.3505
484 1 1.7835 8.9175 3.567
485 1 0.89175 8.02575 4.45875
488 1 2.67525 9.80925 4.45875
110 1 4.45875 9.80925 2.67525
111 1 6.24225 8.02575 2.67525
489 1 3.567 7.134 3.567
490 1 3.567 8.9175 5.3505
491 1 5.3505 7.134 5.3505
492 1 5.3505 8.9175 3.567
493 1 4.45875 8.02575 4.45875
496 1 6.24225 9.80925 4.45875
118 1 8.02575 9.80925 2.67525
119 1 9.80925 8.02575 2.67525
497 1 7.134 7.134 3.567
498 1 7.134 8.9175 5.3505
499 1 8.9175 7.134 5.3505
500 1 8.9175 8.9175 3.567
501 1 8.02575 8.02575 4.45875
504 1 9.80925 9.80925 4.45875
126 1 11.5928 9.80925 2.67525
127 1 13.3763 8.02575 2.67525
505 1 10.701 7.134 3.567
506 1 10.701 8.9175 5.3505
507 1 12.4845 7.134 5.3505
508 1 12.4845 8.9175 3.567
509 1 11.5928 8.02575 4.45875
512 1 13.3763 9.80925 4.45875
134 1 15.1598 9.80925 2.67525
135 1 16.9432 8.02575 2.67525
513 1 14.268 7.134 3.567
514 1 14.268 8.9175 5.3505
515 1 16.0515 7.134 5.3505
516 1 16.0515 8.9175 3.567
517 1 15.1598 8.02575 4.45875
520 1 16.9432 9.80925 4.45875
142 1 18.7268 9.80925 2.67525
143 1 20.5102 8.02575 2.67525
521 1 17.835 7.134 3.567
522 1 17.835 8.9175 5.3505
523 1 19.6185 7.134 5.3505
524 1 19.6185 8.9175 3.567
525 1 18.7268 8.02575 4.45875
528 1 20.5102 9.80925 4.45875
150 1 0.89175 13.3763 2.67525
151 1 2.67525 11.5928 2.67525
529 1 0 10.701 3.567
530 1 0 12.4845 5.3505
531 1 1.7835 10.701 5.3505
532 1 1.7835 12.4845 3.567
533 1 0.89175 11.5928 4.45875
536 1 2.67525 13.3763 4.45875
158 1 4.45875 13.3763 2.67525
159 1 6.24225 11.5928 2.67525
537 1 3.567 10.701 3.567
538 1 3.567 12.4845 5.3505
539 1 5.3505 10.701 5.3505
540 1 5.3505 12.4845 3.567
541 1 4.45875 11.5928 4.45875
544 1 6.24225 13.3763 4.45875
166 1 8.02575 13.3763 2.67525
167 1 9.80925 11.5928 2.67525
545 1 7.134 10.701 3.567
546 1 7.134 12.4845 5.3505
547 1 8.9175 10.701 5.3505
548 1 8.9175 12.4845 3.567
549 1 8.02575 11.5928 4.45875
552 1 9.80925 13.3763 4.45875
174 1 11.5928 13.3763 2.67525
175 1 13.3763 11.5928 2.67525
553 1 10.701 10.701 3.567
554 1 10.701 12.4845 5.3505
555 1 12.4845 10.701 5.3505
556 1 12.4845 12.4845 3.567
557 1 11.5928 11.5928 4.45875
560 1 13.3763 13.3763 4.45875
182 1 15.1598 13.3763 2.67525
183 1 16.9432 11.5928 2.67525
561 1 14.268 10.701 3.567
562 1 14.268 12.4845 5.3505
563 1 16.0515 10.701 5.3505
564 1 16.0515 12.4845 3.567
565 1 15.1598 11.5928 4.45875
568 1 16.9432 13.3763 4.45875
190 1 18.7268 13.3763 2.67525
191 1 20.5102 11.5928 2.67525
569 1 17.835 10.701 3.567
570 1 17.835 12.4845 5.3505
571 1 19.6185 10.701 5.3505
572 1 19.6185 12.4845 3.567
573 1 18.7268 11.5928 4.45875
576 1 20.5102 13.3763 4.45875
198 1 0.89175 16.9432 2.67525
199 1 2.67525 15.1598 2.67525
577 1 0 14.268 3.567
578 1 0 16.0515 5.3505
579 1 1.7835 14.268 5.3505
580 1 1.7835 16.0515 3.567
581 1 0.89175 15.1598 4.45875
584 1 2.67525 16.9432 4.45875
206 1 4.45875 16.9432 2.67525
207 1 6.24225 15.1598 2.67525
585 1 3.567 14.268 3.567
586 1 3.567 16.0515 5.3505
587 1 5.3505 14.268 5.3505
588 1 5.3505 16.0515 3.567
589 1 4.45875 15.1598 4.45875
592 1 6.24225 16.9432 4.45875
214 1 8.02575 16.9432 2.67525
215 1 9.80925 15.1598 2.67525
593 1 7.134 14.268 3.567
594 1 7.134 16.0515 5.3505
595 1 8.9175 14.268 5.3505
596 1 8.9175 16.0515 3.567
597 1 8.02575 15.1598 4.45875
600 1 9.80925 16.9432 4.45875
222 1 11.5928 16.9432 2.67525
223 1 13.3763 15.1598 2.67525
601 1 10.701 14.268 3.567
602 1 10.701 16.0515 5.3505
603 1 12.4845 14.268 5.3505
604 1 12.4845 16.0515 3.567
605 1 11.5928 15.1598 4.45875
608 1 13.3763 16.9432 4.45875
230 1 15.1598 16.9432 2.67525
231 1 16.9432 15.1598 2.67525
609 1 14.268 14.268 3.567
610 1 14.268 16.0515 5.3505
611 1 16.0515 14.268 5.3505
612 1 16.0515 16.0515 3.567
613 1 15.1598 15.1598 4.45875
616 1 16.9432 16.9432 4.45875
238 1 18.7268 16.9432 2.67525
239 1 20.5102 15.1598 2.67525
617 1 17.835 14.268 3.567
618 1 17.835 16.0515 5.3505
619 1 19.6185 14.268 5.3505
620 1 19.6185 16.0515 3.567
621 1 18.7268 15.1598 4.45875
624 1 20.5102 16.9432 4.45875
246 1 0.89175 20.5102 2.67525
247 1 2.67525 18.7268 2.67525
625 1 0 17.835 3.567
626 1 0 19.6185 5.3505
627 1 1.7835 17.835 5.3505
628 1 1.7835 19.6185 3.567
629 1 0.89175 18.7268 4.45875
632 1 2.67525 20.5102 4.45875
254 1 4.45875 20.5102 2.67525
255 1 6.24225 18.7268 2.67525
633 1 3.567 17.835 3.567
634 1 3.567 19.6185 5.3505
635 1 5.3505 17.835 5.3505
636 1 5.3505 19.6185 3.567
637 1 4.45875 18.7268 4.45875
640 1 6.24225 20.5102 4.45875
262 1 8.02575 20.5102 2.67525
263 1 9.80925 18.7268 2.67525
641 1 7.134 17.835 3.567
642 1 7.134 19.6185 5.3505
643 1 8.9175 17.835 5.3505
644 1 8.9175 19.6185 3.567
645 1 8.02575 18.7268 4.45875
648 1 9.80925 20.5102 4.45875
270 1 11.5928 20.5102 2.67525
271 1 13.3763 18.7268 2.67525
649 1 10.701 17.835 3.567
650 1 10.701 19.6185 5.3505
651 1 12.4845 17.835 5.3505
652 1 12.4845 19.6185 3.567
653 1 11.5928 18.7268 4.45875
656 1 13.3763 20.5102 4.45875
278 1 15.1598 20.5102 2.67525
279 1 16.9432 18.7268 2.67525
657 1 14.268 17.835 3.567
658 1 14.268 19.6185 5.3505
659 1 16.0515 17.835 5.3505
660 1 16.0515 19.6185 3.567
661 1 15.1598 18.7268 4.45875
664 1 16.9432 20.5102 4.45875
286 1 18.7268 20.5102 2.67525
287 1 20.5102 18.7268 2.67525
665 1 17.835 17.835 3.567
666 1 17.835 19.6185 5.3505
667 1 19.6185 17.835 5.3505
668 1 19.6185 19.6185 3.567
669 1 18.7268 18.7268 4.45875
672 1 20.5102 20.5102 4.45875
294 1 0.89175 24.0772 2.67525
295 1 2.67525 22.2938 2.67525
673 1 0 21.402 3.567
674 1 0 23.1855 5.3505
675 1 1.7835 21.402 5.3505
676 1 1.7835 23.1855 3.567
677 1 0.89175 22.2938 4.45875
680 1 2.67525 24.0772 4.45875
302 1 4.45875 24.0772 2.67525
303 1 6.24225 22.2938 2.67525
681 1 3.567 21.402 3.567
682 1 3.567 23.1855 5.3505
683 1 5.3505 21.402 5.3505
684 1 5.3505 23.1855 3.567
685 1 4.45875 22.2938 4.45875
688 1 6.24225 24.0772 4.45875
310 1 8.02575 24.0772 2.67525
311 1 9.80925 22.2938 2.67525
689 1 7.134 21.402 3.567
690 1 7.134 23.1855 5.3505
691 1 8.9175 21.402 5.3505
692 1 8.9175 23.1855 3.567
693 1 8.02575 22.2938 4.45875
696 1 9.80925 24.0772 4.45875
318 1 11.5928 24.0772 2.67525
319 1 13.3763 22.2938 2.67525
697 1 10.701 21.402 3.567
698 1 10.701 23.1855 5.3505
699 1 12.4845 21.402 5.3505
700 1 12.4845 23.1855 3.567
701 1 11.5928 22.2938 4.45875
704 1 13.3763 24.0772 4.45875
326 1 15.1598 24.0772 2.67525
327 1 16.9432 22.2938 2.67525
705 1 14.268 21.402 3.567
706 1 14.268 23.1855 5.3505
707 1 16.0515 21.402 5.3505
708 1 16.0515 23.1855 3.567
709 1 15.1598 22.2938 4.45875
712 1 16.9432 24.0772 4.45875
334 1 18.7268 24.0772 2.67525
335 1 20.5102 22.2938 2.67525
713 1 17.835 21.402 3.567
714 1 17.835 23.1855 5.3505
715 1 19.6185 21.402 5.3505
716 1 19.6185 23.1855 3.567
717 1 18.7268 22.2938 4.45875
720 1 20.5102 24.0772 4.45875
342 1 0.89175 27.6442 2.67525
343 1 2.67525 25.8608 2.67525
721 1 0 24.969 3.567
722 1 0 26.7525 5.3505
723 1 1.7835 24.969 5.3505
724 1 1.7835 26.7525 3.567
725 1 0.89175 25.8608 4.45875
728 1 2.67525 27.6442 4.45875
350 1 4.45875 27.6442 2.67525
351 1 6.24225 25.8608 2.67525
729 1 3.567 24.969 3.567
730 1 3.567 26.7525 5.3505
731 1 5.3505 24.969 5.3505
732 1 5.3505 26.7525 3.567
733 1 4.45875 25.8608 4.45875
736 1 6.24225 27.6442 4.45875
358 1 8.02575 27.6442 2.67525
359 1 9.80925 25.8608 2.67525
737 1 7.134 24.969 3.567
738 1 7.134 26.7525 5.3505
739 1 8.9175 24.969 5.3505
740 1 8.9175 26.7525 3.567
741 1 8.02575 25.8608 4.45875
744 1 9.80925 27.6442 4.45875
366 1 11.5928 27.6442 2.67525
367 1 13.3763 25.8608 2.67525
745 1 10.701 24.969 3.567
746 1 10.701 26.7525 5.3505
747 1 12.4845 24.969 5.3505
748 1 12.4845 26.7525 3.567
749 1 11.5928 25.8608 4.45875
752 1 13.3763 27.6442 4.45875
374 1 15.1598 27.6442 2.67525
375 1 16.9432 25.8608 2.67525
753 1 14.268 24.969 3.567
754 1 14.268 26.7525 5.3505
755 1 16.0515 24.969 5.3505
756 1 16.0515 26.7525 3.567
757 1 15.1598 25.8608 4.45875
760 1 16.9432 27.6442 4.45875
382 1 18.7268 27.6442 2.67525
383 1 20.5102 25.8608 2.67525
761 1 17.835 24.969 3.567
762 1 17.835 26.7525 5.3505
763 1 19.6185 24.969 5.3505
764 1 19.6185 26.7525 3.567
765 1 18.7268 25.8608 4.45875
768 1 20.5102 27.6442 4.45875
390 1 0.89175 2.67525 6.24225
391 1 2.67525 0.89175 6.24225
769 1 0 0 7.134
772 1 1.7835 1.7835 7.134
773 1 0.89175 0.89175 8.02575
776 1 2.67525 2.67525 8.02575
398 1 4.45875 2.67525 6.24225
399 1 6.24225 0.89175 6.24225
777 1 3.567 0 7.134
780 1 5.3505 1.7835 7.134
781 1 4.45875 0.89175 8.02575
784 1 6.24225 2.67525 8.02575
406 1 8.02575 2.67525 6.24225
407 1 9.80925 0.89175 6.24225
785 1 7.134 0 7.134
788 1 8.9175 1.7835 7.134
789 1 8.02575 0.89175 8.02575
792 1 9.80925 2.67525 8.02575
414 1 11.5928 2.67525 6.24225
415 1 13.3763 0.89175 6.24225
793 1 10.701 0 7.134
796 1 12.4845 1.7835 7.134
797 1 11.5928 0.89175 8.02575
800 1 13.3763 2.67525 8.02575
422 1 15.1598 2.67525 6.24225
423 1 16.9432 0.89175 6.24225
801 1 14.268 0 7.134
804 1 16.0515 1.7835 7.134
805 1 15.1598 0.89175 8.02575
808 1 16.9432 2.67525 8.02575
430 1 18.7268 2.67525 6.24225
431 1 20.5102 0.89175 6.24225
809 1 17.835 0 7.134
812 1 19.6185 1.7835 7.134
813 1 18.7268 0.89175 8.02575
816 1 20.5102 2.67525 8.02575
438 1 0.89175 6.24225 6.24225
439 1 2.67525 4.45875 6.24225
817 1 0 3.567 7.134
820 1 1.7835 5.3505 7.134
821 1 0.89175 4.45875 8.02575
824 1 2.67525 6.24225 8.02575
446 1 4.45875 6.24225 6.24225
447 1 6.24225 4.45875 6.24225
825 1 3.567 3.567 7.134
828 1 5.3505 5.3505 7.134
829 1 4.45875 4.45875 8.02575
832 1 6.24225 6.24225 8.02575
454 1 8.02575 6.24225 6.24225
455 1 9.80925 4.45875 6.24225
833 1 7.134 3.567 7.134
836 1 8.9175 5.3505 7.134
837 1 8.02575 4.45875 8.02575
840 1 9.80925 6.24225 8.02575
462 1 11.5928 6.24225 6.24225
463 1 13.3763 4.45875 6.24225
841 1 10.701 3.567 7.134
844 1 12.4845 5.3505 7.134
845 1 11.5928 4.45875 8.02575
848 1 13.3763 6.24225 8.02575
470 1 15.1598 6.24225 6.24225
471 1 16.9432 4.45875 6.24225
849 1 14.268 3.567 7.134
852 1 16.0515 5.3505 7.134
853 1 15.1598 4.45875 8.02575
856 1 16.9432 6.24225 8.02575
478 1 18.7268 6.24225 6.24225
479 1 20.5102 4.45875 6.24225
857 1 17.835 3.567 7.134
860 1 19.6185 5.3505 7.134
861 1 18.7268 4.45875 8.02575
864 1 20.5102 6.24225 8.02575
486 1 0.89175 9.80925 6.24225
487 1 2.67525 8.02575 6.24225
865 1 0 7.134 7.134
868 1 1.7835 8.9175 7.134
869 1 0.89175 8.02575 8.02575
872 1 2.67525 9.80925 8.02575
494 1 4.45875 9.80925 6.24225
495 1 6.24225 8.02575 6.24225
873 1 3.567 7.134 7.134
876 1 5.3505 8.9175 7.134
877 1 4.45875 8.02575 8.02575
880 1 6.24225 9.80925 8.02575
502 1 8.02575 9.80925 6.24225
503 1 9.80925 8.02575 6.24225
881 1 7.134 7.134 7.134
884 1 8.9175 8.9175 7.134
885 1 8.02575 8.02575 8.02575
888 1 9.80925 9.80925 8.02575
510 1 11.5928 9.80925 6.24225
511 1 13.3763 8.02575 6.24225
889 1 10.701 7.134 7.134
892 1 12.4845 8.9175 7.134
893 1 11.5928 8.02575 8.02575
896 1 13.3763 9.80925 8.02575
518 1 15.1598 9.80925 6.24225
519 1 16.9432 8.02575 6.24225
897 1 14.268 7.134 7.134
900 1 16.0515 8.9175 7.134
901 1 15.1598 8.02575 8.02575
904 1 16.9432 9.80925 8.02575
526 1 18.7268 9.80925 6.24225
527 1 20.5102 8.02575 6.24225
905 1 17.835 7.134 7.134
908 1 19.6185 8.9175 7.134
909 1 18.7268 8.02575 8.02575
912 1 20.5102 9.80925 8.02575
534 1 0.89175 13.3763 6.24225
535 1 2.67525 11.5928 6.24225
913 1 0 10.701 7.134
916 1 1.7835 12.4845 7.134
917 1 0.89175 11.5928 8.02575
920 1 2.67525 13.3763 8.02575
542 1 4.45875 13.3763 6.24225
543 1 6.24225 11.5928 6.24225
921 1 3.567 10.701 7.134
924 1 5.3505 12.4845 7.134
925 1 4.45875 11.5928 8.02575
928 1 6.24225 13.3763 8.02575
550 1 8.02575 13.3763 6.24225
551 1 9.80925 11.5928 6.24225
929 1 7.134 10.701 7.134
932 1 8.9175 12.4845 7.134
933 1 8.02575 11.5928 8.02575
936 1 9.80925 13.3763 8.02575
558 1 11.5928 13.3763 6.24225
559 1 13.3763 11.5928 6.24225
937 1 10.701 10.701 7.134
940 1 12.4845 12.4845 7.134
941 1 11.5928 11.5928 8.02575
944 1 13.3763 13.3763 8.02575
566 1 15.1598 13.3763 6.24225
567 1 16.9432 11.5928 6.24225
945 1 14.268 10.701 7.134
948 1 16.0515 12.4845 7.134
949 1 15.1598 11.5928 8.02575
952 1 16.9432 13.3763 8.02575
574 1 18.7268 13.3763 6.24225
575 1 20.5102 11.5928 6.24225
953 1 17.835 10.701 7.134
956 1 19.6185 12.4845 7.134
957 1 18.7268 11.5928 8.02575
960 1 20.5102 13.3763 8.02575
582 1 0.89175 16.9432 6.24225
583 1 2.67525 15.1598 6.24225
961 1 0 14.268 7.134
964 1 1.7835 16.0515 7.134
965 1 0.89175 15.1598 8.02575
968 1 2.67525 16.9432 8.02575
590 1 4.45875 16.9432 6.24225
591 1 6.24225 15.1598 6.24225
969 1 3.567 14.268 7.134
972 1 5.3505 16.0515 7.134
973 1 4.45875 15.1598 8.02575
976 1 6.24225 16.9432 8.02575
598 1 8.02575 16.9432 6.24225
599 1 9.80925 15.1598 6.24225
977 1 7.134 14.268 7.134
980 1 8.9175 16.0515 7.134
981 1 8.02575 15.1598 8.02575
984 1 9.80925 16.9432 8.02575
606 1 11.5928 16.9432 6.24225
607 1 13.3763 15.1598 6.24225
985 1 10.701 14.268 7.134
988 1 12.4845 16.0515 7.134
989 1 11.5928 15.1598 8.02575
992 1 13.3763 16.9432 8.02575