1000
Atoms. Timestep. 0.0
1 0.0000 0.0000 0.0000
1 0.0000 1.6213 1.9322
1 1.7835 -0.1554 1.7767
1 1.7835 1.7767 0.1554
1 0.8918 0.8106 0.9661
1 2.6752 2.5873 1.1215
1 3.5670 0.0000 0.0000
1 3.5670 1.6213 1.9322
1 5.3505 -0.1554 1.7767
1 5.3505 1.7767 0.1554
1 4.4588 0.8106 0.9661
1 6.2422 2.5873 1.1215
1 7.1340 0.0000 0.0000
1 7.1340 1.6213 1.9322
1 8.9175 -0.1554 1.7767
1 8.9175 1.7767 0.1554
1 8.0258 0.8106 0.9661
1 9.8092 2.5873 1.1215
1 10.7010 0.0000 0.0000
1 10.7010 1.6213 1.9322
1 12.4845 -0.1554 1.7767
1 12.4845 1.7767 0.1554
1 11.5928 0.8106 0.9661
1 13.3763 2.5873 1.1215
1 14.2680 0.0000 0.0000
1 14.2680 1.6213 1.9322
1 16.0515 -0.1554 1.7767
1 16.0515 1.7767 0.1554
1 15.1598 0.8106 0.9661
1 16.9432 2.5873 1.1215
1 0.0000 3.5534 0.3109
1 0.0000 5.1747 2.2430
1 1.7835 3.3980 2.0876
1 1.7835 5.3301 0.4663
1 0.8918 4.3641 1.2770
1 2.6752 6.1408 1.4324
1 3.5670 3.5534 0.3109
1 3.5670 5.1747 2.2430
1 5.3505 3.3980 2.0876
1 5.3505 5.3301 0.4663
1 4.4588 4.3641 1.2770
1 6.2422 6.1408 1.4324
1 7.1340 3.5534 0.3109
1 7.1340 5.1747 2.2430
1 8.9175 3.3980 2.0876
1 8.9175 5.3301 0.4663
1 8.0258 4.3641 1.2770
1 9.8092 6.1408 1.4324
1 10.7010 3.5534 0.3109
1 10.7010 5.1747 2.2430
1 12.4845 3.3980 2.0876
1 12.4845 5.3301 0.4663
1 11.5928 4.3641 1.2770
1 13.3763 6.1408 1.4324
1 14.2680 3.5534 0.3109
1 14.2680 5.1747 2.2430
1 16.0515 3.3980 2.0876
1 16.0515 5.3301 0.4663
1 15.1598 4.3641 1.2770
1 16.9432 6.1408 1.4324
1 0.0000 7.1069 0.6218
1 0.0000 8.7281 2.5539
1 1.7835 6.9514 2.3985
1 1.7835 8.8836 0.7772
1 0.8918 7.9175 1.5878
1 2.6752 9.6942 1.7433
1 3.5670 7.1069 0.6218
1 3.5670 8.7281 2.5539
1 5.3505 6.9514 2.3985
1 5.3505 8.8836 0.7772
1 4.4588 7.9175 1.5878
1 6.2422 9.6942 1.7433
1 7.1340 7.1069 0.6218
1 7.1340 8.7281 2.5539
1 8.9175 6.9514 2.3985
1 8.9175 8.8836 0.7772
1 8.0258 7.9175 1.5878
1 9.8092 9.6942 1.7433
1 10.7010 7.1069 0.6218
1 10.7010 8.7281 2.5539
1 12.4845 6.9514 2.3985
1 12.4845 8.8836 0.7772
1 11.5928 7.9175 1.5878
1 13.3763 9.6942 1.7433
1 14.2680 7.1069 0.6218
1 14.2680 8.7281 2.5539
1 16.0515 6.9514 2.3985
1 16.0515 8.8836 0.7772
1 15.1598 7.9175 1.5878
1 16.9432 9.6942 1.7433
1 0.0000 10.6603 0.9327
1 0.0000 12.2816 2.8648
1 1.7835 10.5048 2.7094
1 1.7835 12.4370 1.0881
1 0.8918 11.4710 1.8987
1 2.6752 13.2477 2.0542
1 3.5670 10.6603 0.9327
1 3.5670 12.2816 2.8648
1 5.3505 10.5048 2.7094
1 5.3505 12.4370 1.0881
1 4.4588 11.4710 1.8987
1 6.2422 13.2477 2.0542
1 7.1340 10.6603 0.9327
1 7.1340 12.2816 2.8648
1 8.9175 10.5048 2.7094
1 8.9175 12.4370 1.0881
1 8.0258 11.4710 1.8987
1 9.8092 13.2477 2.0542
1 10.7010 10.6603 0.9327
1 10.7010 12.2816 2.8648
1 12.4845 10.5048 2.7094
1 12.4845 12.4370 1.0881
1 11.5928 11.4710 1.8987
1 13.3763 13.2477 2.0542
1 14.2680 10.6603 0.9327
1 14.2680 12.2816 2.8648
1 16.0515 10.5048 2.7094
1 16.0515 12.4370 1.0881
1 15.1598 11.4710 1.8987
1 16.9432 13.2477 2.0542
1 0.0000 14.2137 1.2435
1 0.0000 15.8350 3.1757
1 1.7835 14.0583 3.0203
1 1.7835 15.9904 1.3990
1 0.8918 15.0244 2.2096
1 2.6752 16.8010 2.3651
1 3.5670 14.2137 1.2435
1 3.5670 15.8350 3.1757
1 5.3505 14.0583 3.0203
1 5.3505 15.9904 1.3990
1 4.4588 15.0244 2.2096
1 6.2422 16.8010 2.3651
1 7.1340 14.2137 1.2435
1 7.1340 15.8350 3.1757
1 8.9175 14.0583 3.0203
1 8.9175 15.9904 1.3990
1 8.0258 15.0244 2.2096
1 9.8092 16.8010 2.3651
1 10.7010 14.2137 1.2435
1 10.7010 15.8350 3.1757
1 12.4845 14.0583 3.0203
1 12.4845 15.9904 1.3990
1 11.5928 15.0244 2.2096
1 13.3763 16.8010 2.3651
1 14.2680 14.2137 1.2435
1 14.2680 15.8350 3.1757
1 16.0515 14.0583 3.0203
1 16.0515 15.9904 1.3990
1 15.1598 15.0244 2.2096
1 16.9432 16.8010 2.3651
1 0.8918 2.4319 2.8982
1 2.6752 0.6552 2.7428
1 0.0000 -0.3109 3.5534
1 0.0000 1.3104 5.4856
1 1.7835 -0.4663 5.3301
1 1.7835 1.4658 3.7089
1 0.8918 0.4998 4.5195
1 2.6752 2.2765 4.6749
1 4.4588 2.4319 2.8982
1 6.2422 0.6552 2.7428
1 3.5670 -0.3109 3.5534
1 3.5670 1.3104 5.4856
1 5.3505 -0.4663 5.3301
1 5.3505 1.4658 3.7089
1 4.4588 0.4998 4.5195
1 6.2422 2.2765 4.6749
1 8.0258 2.4319 2.8982
1 9.8092 0.6552 2.7428
1 7.1340 -0.3109 3.5534
1 7.1340 1.3104 5.4856
1 8.9175 -0.4663 5.3301
1 8.9175 1.4658 3.7089
1 8.0258 0.4998 4.5195
1 9.8092 2.2765 4.6749
1 11.5928 2.4319 2.8982
1 13.3763 0.6552 2.7428
1 10.7010 -0.3109 3.5534
1 10.7010 1.3104 5.4856
1 12.4845 -0.4663 5.3301
1 12.4845 1.4658 3.7089
1 11.5928 0.4998 4.5195
1 13.3763 2.2765 4.6749
1 15.1598 2.4319 2.8982
1 16.9432 0.6552 2.7428
1 14.2680 -0.3109 3.5534
1 14.2680 1.3104 5.4856
1 16.0515 -0.4663 5.3301
1 16.0515 1.4658 3.7089
1 15.1598 0.4998 4.5195
1 16.9432 2.2765 4.6749
1 0.8918 5.9853 3.2091
1 2.6752 4.2086 3.0537
1 0.0000 3.2425 3.8643
1 0.0000 4.8638 5.7965
1 1.7835 3.0871 5.6410
1 1.7835 5.0193 4.0198
1 0.8918 4.0532 4.8304
1 2.6752 5.8299 4.9858
1 4.4588 5.9853 3.2091
1 6.2422 4.2086 3.0537
1 3.5670 3.2425 3.8643
1 3.5670 4.8638 5.7965
1 5.3505 3.0871 5.6410
1 5.3505 5.0193 4.0198
1 4.4588 4.0532 4.8304
1 6.2422 5.8299 4.9858
1 8.0258 5.9853 3.2091
1 9.8092 4.2086 3.0537
1 7.1340 3.2425 3.8643
1 7.1340 4.8638 5.7965
1 8.9175 3.0871 5.6410
1 8.9175 5.0193 4.0198
1 8.0258 4.0532 4.8304
1 9.8092 5.8299 4.9858
1 11.5928 5.9853 3.2091
1 13.3763 4.2086 3.0537
1 10.7010 3.2425 3.8643
1 10.7010 4.8638 5.7965
1 12.4845 3.0871 5.6410
1 12.4845 5.0193 4.0198
1 11.5928 4.0532 4.8304
1 13.3763 5.8299 4.9858
1 15.1598 5.9853 3.2091
1 16.9432 4.2086 3.0537
1 14.2680 3.2425 3.8643
1 14.2680 4.8638 5.7965
1 16.0515 3.0871 5.6410
1 16.0515 5.0193 4.0198
1 15.1598 4.0532 4.8304
1 16.9432 5.8299 4.9858
1 0.8918 9.5388 3.5200
1 2.6752 7.7620 3.3646
1 0.0000 6.7960 4.1752
1 0.0000 8.4172 6.1074
1 1.7835 6.6405 5.9519
1 1.7835 8.5727 4.3306
1 0.8918 7.6066 5.1413
1 2.6752 9.3833 5.2967
1 4.4588 9.5388 3.5200
1 6.2422 7.7620 3.3646
1 3.5670 6.7960 4.1752
1 3.5670 8.4172 6.1074
1 5.3505 6.6405 5.9519
1 5.3505 8.5727 4.3306
1 4.4588 7.6066 5.1413
1 6.2422 9.3833 5.2967
1 8.0258 9.5388 3.5200
1 9.8092 7.7620 3.3646
1 7.1340 6.7960 4.1752
1 7.1340 8.4172 6.1074
1 8.9175 6.6405 5.9519
1 8.9175 8.5727 4.3306
1 8.0258 7.6066 5.1413
1 9.8092 9.3833 5.2967
1 11.5928 9.5388 3.5200
1 13.3763 7.7620 3.3646
1 10.7010 6.7960 4.1752
1 10.7010 8.4172 6.1074
1 12.4845 6.6405 5.9519
1 12.4845 8.5727 4.3306
1 11.5928 7.6066 5.1413
1 13.3763 9.3833 5.2967
1 15.1598 9.5388 3.5200
1 16.9432 7.7620 3.3646
1 14.2680 6.7960 4.1752
1 14.2680 8.4172 6.1074
1 16.0515 6.6405 5.9519
1 16.0515 8.5727 4.3306
1 15.1598 7.6066 5.1413
1 16.9432 9.3833 5.2967
1 0.8918 13.0922 3.8309
1 2.6752 11.3155 3.6754
1 0.0000 10.3494 4.4861
1 0.0000 11.9707 6.4182
1 1.7835 10.1940 6.2628
1 1.7835 12.1261 4.6415
1 0.8918 11.1601 5.4522
1 2.6752 12.9368 5.6076
1 4.4588 13.0922 3.8309
1 6.2422 11.3155 3.6754
1 3.5670 10.3494 4.4861
1 3.5670 11.9707 6.4182
1 5.3505 10.1940 6.2628
1 5.3505 12.1261 4.6415
1 4.4588 11.1601 5.4522
1 6.2422 12.9368 5.6076
1 8.0258 13.0922 3.8309
1 9.8092 11.3155 3.6754
1 7.1340 10.3494 4.4861
1 7.1340 11.9707 6.4182
1 8.9175 10.1940 6.2628
1 8.9175 12.1261 4.6415
1 8.0258 11.1601 5.4522
1 9.8092 12.9368 5.6076
1 11.5928 13.0922 3.8309
1 13.3763 11.3155 3.6754
1 10.7010 10.3494 4.4861
1 10.7010 11.9707 6.4182
1 12.4845 10.1940 6.2628
1 12.4845 12.1261 4.6415
1 11.5928 11.1601 5.4522
1 13.3763 12.9368 5.6076
1 15.1598 13.0922 3.8309
1 16.9432 11.3155 3.6754
1 14.2680 10.3494 4.4861
1 14.2680 11.9707 6.4182
1 16.0515 10.1940 6.2628
1 16.0515 12.1261 4.6415
1 15.1598 11.1601 5.4522
1 16.9432 12.9368 5.6076
1 0.8918 16.6456 4.1418
1 2.6752 14.8689 3.9863
1 0.0000 13.9028 4.7970
1 0.0000 15.5241 6.7291
1 1.7835 13.7474 6.5737
1 1.7835 15.6795 4.9524
1 0.8918 14.7135 5.7630
1 2.6752 16.4901 5.9185
1 4.4588 16.6456 4.1418
1 6.2422 14.8689 3.9863
1 3.5670 13.9028 4.7970
1 3.5670 15.5241 6.7291
1 5.3505 13.7474 6.5737
1 5.3505 15.6795 4.9524
1 4.4588 14.7135 5.7630
1 6.2422 16.4901 5.9185
1 8.0258 16.6456 4.1418
1 9.8092 14.8689 3.9863
1 7.1340 13.9028 4.7970
1 7.1340 15.5241 6.7291
1 8.9175 13.7474 6.5737
1 8.9175 15.6795 4.9524
1 8.0258 14.7135 5.7630
1 9.8092 16.4901 5.9185
1 11.5928 16.6456 4.1418
1 13.3763 14.8689 3.9863
1 10.7010 13.9028 4.7970
1 10.7010 15.5241 6.7291
1 12.4845 13.7474 6.5737
1 12.4845 15.6795 4.9524
1 11.5928 14.7135 5.7630
1 13.3763 16.4901 5.9185
1 15.1598 16.6456 4.1418
1 16.9432 14.8689 3.9863
1 14.2680 13.9028 4.7970
1 14.2680 15.5241 6.7291
1 16.0515 13.7474 6.5737
1 16.0515 15.6795 4.9524
1 15.1598 14.7135 5.7630
1 16.9432 16.4901 5.9185
1 0.8918 2.1210 6.4517
1 2.6752 0.3443 6.2962
1 0.0000 -0.6218 7.1069
1 1.7835 1.1549 7.2623
1 0.8918 0.1889 8.0729
1 2.6752 1.9656 8.2284
1 4.4588 2.1210 6.4517
1 6.2422 0.3443 6.2962
1 3.5670 -0.6218 7.1069
1 5.3505 1.1549 7.2623
1 4.4588 0.1889 8.0729
1 6.2422 1.9656 8.2284
1 8.0258 2.1210 6.4517
1 9.8092 0.3443 6.2962
1 7.1340 -0.6218 7.1069
1 8.9175 1.1549 7.2623
1 8.0258 0.1889 8.0729
1 9.8092 1.9656 8.2284
1 11.5928 2.1210 6.4517
1 13.3763 0.3443 6.2962
1 10.7010 -0.6218 7.1069
1 12.4845 1.1549 7.2623
1 11.5928 0.1889 8.0729
1 13.3763 1.9656 8.2284
1 15.1598 2.1210 6.4517
1 16.9432 0.3443 6.2962
1 14.2680 -0.6218 7.1069
1 16.0515 1.1549 7.2623
1 15.1598 0.1889 8.0729
1 16.9432 1.9656 8.2284
1 0.8918 5.6744 6.7625
1 2.6752 3.8977 6.6071
1 0.0000 2.9317 7.4177
1 1.7835 4.7084 7.5732
1 0.8918 3.7423 8.3838
1 2.6752 5.5190 8.5393
1 4.4588 5.6744 6.7625
1 6.2422 3.8977 6.6071
1 3.5670 2.9317 7.4177
1 5.3505 4.7084 7.5732
1 4.4588 3.7423 8.3838
1 6.2422 5.5190 8.5393
1 8.0258 5.6744 6.7625
1 9.8092 3.8977 6.6071
1 7.1340 2.9317 7.4177
1 8.9175 4.7084 7.5732
1 8.0258 3.7423 8.3838
1 9.8092 5.5190 8.5393
1 11.5928 5.6744 6.7625
1 13.3763 3.8977 6.6071
1 10.7010 2.9317 7.4177
1 12.4845 4.7084 7.5732
1 11.5928 3.7423 8.3838
1 13.3763 5.5190 8.5393
1 15.1598 5.6744 6.7625
1 16.9432 3.8977 6.6071
1 14.2680 2.9317 7.4177
1 16.0515 4.7084 7.5732
1 15.1598 3.7423 8.3838
1 16.9432 5.5190 8.5393
1 0.8918 9.2279 7.0734
1 2.6752 7.4512 6.9180
1 0.0000 6.4851 7.7286
1 1.7835 8.2618 7.8841
1 0.8918 7.2957 8.6947
1 2.6752 9.0724 8.8501
1 4.4588 9.2279 7.0734
1 6.2422 7.4512 6.9180
1 3.5670 6.4851 7.7286
1 5.3505 8.2618 7.8841
1 4.4588 7.2957 8.6947
1 6.2422 9.0724 8.8501
1 8.0258 9.2279 7.0734
1 9.8092 7.4512 6.9180
1 7.1340 6.4851 7.7286
1 8.9175 8.2618 7.8841
1 8.0258 7.2957 8.6947
1 9.8092 9.0724 8.8501
1 11.5928 9.2279 7.0734
1 13.3763 7.4512 6.9180
1 10.7010 6.4851 7.7286
1 12.4845 8.2618 7.8841
1 11.5928 7.2957 8.6947
1 13.3763 9.0724 8.8501
1 15.1598 9.2279 7.0734
1 16.9432 7.4512 6.9180
1 14.2680 6.4851 7.7286
1 16.0515 8.2618 7.8841
1 15.1598 7.2957 8.6947
1 16.9432 9.0724 8.8501
1 0.8918 12.7814 7.3843
1 2.6752 11.0046 7.2289
1 0.0000 10.0385 8.0395
1 1.7835 11.8152 8.1949
1 0.8918 10.8492 9.0056
1 2.6752 12.6259 9.1610
1 4.4588 12.7814 7.3843
1 6.2422 11.0046 7.2289
1 3.5670 10.0385 8.0395
1 5.3505 11.8152 8.1949
1 4.4588 10.8492 9.0056
1 6.2422 12.6259 9.1610
1 8.0258 12.7814 7.3843
1 9.8092 11.0046 7.2289
1 7.1340 10.0385 8.0395
1 8.9175 11.8152 8.1949
1 8.0258 10.8492 9.0056
1 9.8092 12.6259 9.1610
1 11.5928 12.7814 7.3843
1 13.3763 11.0046 7.2289
1 10.7010 10.0385 8.0395
1 12.4845 11.8152 8.1949
1 11.5928 10.8492 9.0056
1 13.3763 12.6259 9.1610
1 15.1598 12.7814 7.3843
1 16.9432 11.0046 7.2289
1 14.2680 10.0385 8.0395
1 16.0515 11.8152 8.1949
1 15.1598 10.8492 9.0056
1 16.9432 12.6259 9.1610
1 0.8918 16.3347 7.6952
1 2.6752 14.5581 7.5398
1 0.0000 13.5919 8.3504
1 1.7835 15.3687 8.5058
1 0.8918 14.4026 9.3165
1 2.6752 16.1792 9.4719
1 4.4588 16.3347 7.6952
1 6.2422 14.5581 7.5398
1 3.5670 13.5919 8.3504
1 5.3505 15.3687 8.5058
1 4.4588 14.4026 9.3165
1 6.2422 16.1792 9.4719
1 8.0258 16.3347 7.6952
1 9.8092 14.5581 7.5398
1 7.1340 13.5919 8.3504
1 8.9175 15.3687 8.5058
1 8.0258 14.4026 9.3165
1 9.8092 16.1792 9.4719
1 11.5928 16.3347 7.6952
1 13.3763 14.5581 7.5398
1 10.7010 13.5919 8.3504
1 12.4845 15.3687 8.5058
1 11.5928 14.4026 9.3165
1 13.3763 16.1792 9.4719
1 15.1598 16.3347 7.6952
1 16.9432 14.5581 7.5398
1 14.2680 13.5919 8.3504
1 16.0515 15.3687 8.5058
1 15.1598 14.4026 9.3165
1 16.9432 16.1792 9.4719
1 0.0000 0.9995 9.0390
1 1.7835 -0.7772 8.8836
1 0.8918 1.8101 10.0051
1 2.6752 0.0334 9.8496
1 0.0000 -0.9327 10.6603
1 1.7835 0.8441 10.8157
1 0.8918 -0.1220 11.6264
1 2.6752 1.6547 11.7818
1 3.5670 0.9995 9.0390
1 5.3505 -0.7772 8.8836
1 4.4588 1.8101 10.0051
1 6.2422 0.0334 9.8496
1 3.5670 -0.9327 10.6603
1 5.3505 0.8441 10.8157
1 4.4588 -0.1220 11.6264
1 6.2422 1.6547 11.7818
1 7.1340 0.9995 9.0390
1 8.9175 -0.7772 8.8836
1 8.0258 1.8101 10.0051
1 9.8092 0.0334 9.8496
1 7.1340 -0.9327 10.6603
1 8.9175 0.8441 10.8157
1 8.0258 -0.1220 11.6264
1 9.8092 1.6547 11.7818
1 10.7010 0.9995 9.0390
1 12.4845 -0.7772 8.8836
1 11.5928 1.8101 10.0051
1 13.3763 0.0334 9.8496
1 10.7010 -0.9327 10.6603
1 12.4845 0.8441 10.8157
1 11.5928 -0.1220 11.6264
1 13.3763 1.6547 11.7818
1 14.2680 0.9995 9.0390
1 16.0515 -0.7772 8.8836
1 15.1598 1.8101 10.0051
1 16.9432 0.0334 9.8496
1 14.2680 -0.9327 10.6603
1 16.0515 0.8441 10.8157
1 15.1598 -0.1220 11.6264
1 16.9432 1.6547 11.7818
1 0.0000 4.5529 9.3499
1 1.7835 2.7762 9.1945
1 0.8918 5.3636 10.3160
1 2.6752 3.5869 10.1605
1 0.0000 2.6208 10.9712
1 1.7835 4.3975 11.1266
1 0.8918 3.4314 11.9373
1 2.6752 5.2081 12.0927
1 3.5670 4.5529 9.3499
1 5.3505 2.7762 9.1945
1 4.4588 5.3636 10.3160
1 6.2422 3.5869 10.1605
1 3.5670 2.6208 10.9712
1 5.3505 4.3975 11.1266
1 4.4588 3.4314 11.9373
1 6.2422 5.2081 12.0927
1 7.1340 4.5529 9.3499
1 8.9175 2.7762 9.1945
1 8.0258 5.3636 10.3160
1 9.8092 3.5869 10.1605
1 7.1340 2.6208 10.9712
1 8.9175 4.3975 11.1266
1 8.0258 3.4314 11.9373
1 9.8092 5.2081 12.0927
1 10.7010 4.5529 9.3499
1 12.4845 2.7762 9.1945
1 11.5928 5.3636 10.3160
1 13.3763 3.5869 10.1605
1 10.7010 2.6208 10.9712
1 12.4845 4.3975 11.1266
1 11.5928 3.4314 11.9373
1 13.3763 5.2081 12.0927
1 14.2680 4.5529 9.3499
1 16.0515 2.7762 9.1945
1 15.1598 5.3636 10.3160
1 16.9432 3.5869 10.1605
1 14.2680 2.6208 10.9712
1 16.0515 4.3975 11.1266
1 15.1598 3.4314 11.9373
1 16.9432 5.2081 12.0927
1 0.0000 8.1064 9.6608
1 1.7835 6.3296 9.5053
1 0.8918 8.9170 10.6269
1 2.6752 7.1403 10.4714
1 0.0000 6.1742 11.2820
1 1.7835 7.9509 11.4375
1 0.8918 6.9848 12.2482
1 2.6752 8.7615 12.4036
1 3.5670 8.1064 9.6608
1 5.3505 6.3296 9.5053
1 4.4588 8.9170 10.6269
1 6.2422 7.1403 10.4714
1 3.5670 6.1742 11.2820
1 5.3505 7.9509 11.4375
1 4.4588 6.9848 12.2482
1 6.2422 8.7615 12.4036
1 7.1340 8.1064 9.6608
1 8.9175 6.3296 9.5053
1 8.0258 8.9170 10.6269
1 9.8092 7.1403 10.4714
1 7.1340 6.1742 11.2820
1 8.9175 7.9509 11.4375
1 8.0258 6.9848 12.2482
1 9.8092 8.7615 12.4036
1 10.7010 8.1064 9.6608
1 12.4845 6.3296 9.5053
1 11.5928 8.9170 10.6269
1 13.3763 7.1403 10.4714
1 10.7010 6.1742 11.2820
1 12.4845 7.9509 11.4375
1 11.5928 6.9848 12.2482
1 13.3763 8.7615 12.4036
1 14.2680 8.1064 9.6608
1 16.0515 6.3296 9.5053
1 15.1598 8.9170 10.6269
1 16.9432 7.1403 10.4714
1 14.2680 6.1742 11.2820
1 16.0515 7.9509 11.4375
1 15.1598 6.9848 12.2482
1 16.9432 8.7615 12.4036
1 0.0000 11.6598 9.9717
1 1.7835 9.8831 9.8162
1 0.8918 12.4705 10.9377
1 2.6752 10.6938 10.7823
1 0.0000 9.7276 11.5929
1 1.7835 11.5043 11.7484
1 0.8918 10.5383 12.5591
1 2.6752 12.3150 12.7145
1 3.5670 11.6598 9.9717
1 5.3505 9.8831 9.8162
1 4.4588 12.4705 10.9377
1 6.2422 10.6938 10.7823
1 3.5670 9.7276 11.5929
1 5.3505 11.5043 11.7484
1 4.4588 10.5383 12.5591
1 6.2422 12.3150 12.7145
1 7.1340 11.6598 9.9717
1 8.9175 9.8831 9.8162
1 8.0258 12.4705 10.9377
1 9.8092 10.6938 10.7823
1 7.1340 9.7276 11.5929
1 8.9175 11.5043 11.7484
1 8.0258 10.5383 12.5591
1 9.8092 12.3150 12.7145
1 10.7010 11.6598 9.9717
1 12.4845 9.8831 9.8162
1 11.5928 12.4705 10.9377
1 13.3763 10.6938 10.7823
1 10.7010 9.7276 11.5929
1 12.4845 11.5043 11.7484
1 11.5928 10.5383 12.5591
1 13.3763 12.3150 12.7145
1 14.2680 11.6598 9.9717
1 16.0515 9.8831 9.8162
1 15.1598 12.4705 10.9377
1 16.9432 10.6938 10.7823
1 14.2680 9.7276 11.5929
1 16.0515 11.5043 11.7484
1 15.1598 10.5383 12.5591
1 16.9432 12.3150 12.7145
1 0.0000 15.2132 10.2825
1 1.7835 13.4365 10.1271
1 0.8918 16.0238 11.2486
1 2.6752 14.2472 11.0932
1 0.0000 13.2811 11.9038
1 1.7835 15.0578 12.0593
1 0.8918 14.0917 12.8699
1 2.6752 15.8683 13.0254
1 3.5670 15.2132 10.2825
1 5.3505 13.4365 10.1271
1 4.4588 16.0238 11.2486
1 6.2422 14.2472 11.0932
1 3.5670 13.2811 11.9038
1 5.3505 15.0578 12.0593
1 4.4588 14.0917 12.8699
1 6.2422 15.8683 13.0254
1 7.1340 15.2132 10.2825
1 8.9175 13.4365 10.1271
1 8.0258 16.0238 11.2486
1 9.8092 14.2472 11.0932
1 7.1340 13.2811 11.9038
1 8.9175 15.0578 12.0593
1 8.0258 14.0917 12.8699
1 9.8092 15.8683 13.0254
1 10.7010 15.2132 10.2825
1 12.4845 13.4365 10.1271
1 11.5928 16.0238 11.2486
1 13.3763 14.2472 11.0932
1 10.7010 13.2811 11.9038
1 12.4845 15.0578 12.0593
1 11.5928 14.0917 12.8699
1 13.3763 15.8683 13.0254
1 14.2680 15.2132 10.2825
1 16.0515 13.4365 10.1271
1 15.1598 16.0238 11.2486
1 16.9432 14.2472 11.0932
1 14.2680 13.2811 11.9038
1 16.0515 15.0578 12.0593
1 15.1598 14.0917 12.8699
1 16.9432 15.8683 13.0254
1 0.0000 0.6886 12.5924
1 1.7835 -1.0881 12.4370
1 0.8918 1.4992 13.5586
1 2.6752 -0.2775 13.4031
1 0.0000 -1.2435 14.2137
1 1.7835 0.5332 14.3691
1 0.8918 -0.4329 15.1798
1 2.6752 1.3438 15.3353
1 3.5670 0.6886 12.5924
1 5.3505 -1.0881 12.4370
1 4.4588 1.4992 13.5586
1 6.2422 -0.2775 13.4031
1 3.5670 -1.2435 14.2137
1 5.3505 0.5332 14.3691
1 4.4588 -0.4329 15.1798
1 6.2422 1.3438 15.3353
1 7.1340 0.6886 12.5924
1 8.9175 -1.0881 12.4370
1 8.0258 1.4992 13.5586
1 9.8092 -0.2775 13.4031
1 7.1340 -1.2435 14.2137
1 8.9175 0.5332 14.3691
1 8.0258 -0.4329 15.1798
1 9.8092 1.3438 15.3353
1 10.7010 0.6886 12.5924
1 12.4845 -1.0881 12.4370
1 11.5928 1.4992 13.5586
1 13.3763 -0.2775 13.4031
1 10.7010 -1.2435 14.2137
1 12.4845 0.5332 14.3691
1 11.5928 -0.4329 15.1798
1 13.3763 1.3438 15.3353
1 14.2680 0.6886 12.5924
1 16.0515 -1.0881 12.4370
1 15.1598 1.4992 13.5586
1 16.9432 -0.2775 13.4031
1 14.2680 -1.2435 14.2137
1 16.0515 0.5332 14.3691
1 15.1598 -0.4329 15.1798
1 16.9432 1.3438 15.3353
1 0.0000 4.2420 12.9033
1 1.7835 2.4653 12.7479
1 0.8918 5.0527 13.8694
1 2.6752 3.2760 13.7140
1 0.0000 2.3099 14.5246
1 1.7835 4.0866 14.6800
1 0.8918 3.1205 15.4907
1 2.6752 4.8972 15.6462
1 3.5670 4.2420 12.9033
1 5.3505 2.4653 12.7479
1 4.4588 5.0527 13.8694
1 6.2422 3.2760 13.7140
1 3.5670 2.3099 14.5246
1 5.3505 4.0866 14.6800
1 4.4588 3.1205 15.4907
1 6.2422 4.8972 15.6462
1 7.1340 4.2420 12.9033
1 8.9175 2.4653 12.7479
1 8.0258 5.0527 13.8694
1 9.8092 3.2760 13.7140
1 7.1340 2.3099 14.5246
1 8.9175 4.0866 14.6800
1 8.0258 3.1205 15.4907
1 9.8092 4.8972 15.6462
1 10.7010 4.2420 12.9033
1 12.4845 2.4653 12.7479
1 11.5928 5.0527 13.8694
1 13.3763 3.2760 13.7140
1 10.7010 2.3099 14.5246
1 12.4845 4.0866 14.6800
1 11.5928 3.1205 15.4907
1 13.3763 4.8972 15.6462
1 14.2680 4.2420 12.9033
1 16.0515 2.4653 12.7479
1 15.1598 5.0527 13.8694
1 16.9432 3.2760 13.7140
1 14.2680 2.3099 14.5246
1 16.0515 4.0866 14.6800
1 15.1598 3.1205 15.4907
1 16.9432 4.8972 15.6462
1 0.0000 7.7955 13.2142
1 1.7835 6.0188 13.0588
1 0.8918 8.6061 14.1803
1 2.6752 6.8294 14.0249
1 0.0000 5.8633 14.8355
1 1.7835 7.6400 14.9909
1 0.8918 6.6739 15.8016
1 2.6752 8.4507 15.9570
1 3.5670 7.7955 13.2142
1 5.3505 6.0188 13.0588
1 4.4588 8.6061 14.1803
1 6.2422 6.8294 14.0249
1 3.5670 5.8633 14.8355
1 5.3505 7.6400 14.9909
1 4.4588 6.6739 15.8016
1 6.2422 8.4507 15.9570
1 7.1340 7.7955 13.2142
1 8.9175 6.0188 13.0588
1 8.0258 8.6061 14.1803
1 9.8092 6.8294 14.0249
1 7.1340 5.8633 14.8355
1 8.9175 7.6400 14.9909
1 8.0258 6.6739 15.8016
1 9.8092 8.4507 15.9570
1 10.7010 7.7955 13.2142
1 12.4845 6.0188 13.0588
1 11.5928 8.6061 14.1803
1 13.3763 6.8294 14.0249
1 10.7010 5.8633 14.8355
1 12.4845 7.6400 14.9909
1 11.5928 6.6739 15.8016
1 13.3763 8.4507 15.9570
1 14.2680 7.7955 13.2142
1 16.0515 6.0188 13.0588
1 15.1598 8.6061 14.1803
1 16.9432 6.8294 14.0249
1 14.2680 5.8633 14.8355
1 16.0515 7.6400 14.9909
1 15.1598 6.6739 15.8016
1 16.9432 8.4507 15.9570
1 0.0000 11.3489 13.5251
1 1.7835 9.5722 13.3696
1 0.8918 12.1596 14.4912
1 2.6752 10.3829 14.3358
1 0.0000 9.4167 15.1464
1 1.7835 11.1935 15.3018
1 0.8918 10.2274 16.1125
1 2.6752 12.0041 16.2679
1 3.5670 11.3489 13.5251
1 5.3505 9.5722 13.3696
1 4.4588 12.1596 14.4912
1 6.2422 10.3829 14.3358
1 3.5670 9.4167 15.1464
1 5.3505 11.1935 15.3018
1 4.4588 10.2274 16.1125
1 6.2422 12.0041 16.2679
1 7.1340 11.3489 13.5251
1 8.9175 9.5722 13.3696
1 8.0258 12.1596 14.4912
1 9.8092 10.3829 14.3358
1 7.1340 9.4167 15.1464
1 8.9175 11.1935 15.3018
1 8.0258 10.2274 16.1125
1 9.8092 12.0041 16.2679
1 10.7010 11.3489 13.5251
1 12.4845 9.5722 13.3696
1 11.5928 12.1596 14.4912
1 13.3763 10.3829 14.3358
1 10.7010 9.4167 15.1464
1 12.4845 11.1935 15.3018
1 11.5928 10.2274 16.1125
1 13.3763 12.0041 16.2679
1 14.2680 11.3489 13.5251
1 16.0515 9.5722 13.3696
1 15.1598 12.1596 14.4912
1 16.9432 10.3829 14.3358
1 14.2680 9.4167 15.1464
1 16.0515 11.1935 15.3018
1 15.1598 10.2274 16.1125
1 16.9432 12.0041 16.2679
1 0.0000 14.9023 13.8360
1 1.7835 13.1256 13.6805
1 0.8918 15.7129 14.8021
1 2.6752 13.9363 14.6467
1 0.0000 12.9702 15.4572
1 1.7835 14.7469 15.6127
1 0.8918 13.7808 16.4234
1 2.6752 15.5575 16.5788
1 3.5670 14.9023 13.8360
1 5.3505 13.1256 13.6805
1 4.4588 15.7129 14.8021
1 6.2422 13.9363 14.6467
1 3.5670 12.9702 15.4572
1 5.3505 14.7469 15.6127
1 4.4588 13.7808 16.4234
1 6.2422 15.5575 16.5788
1 7.1340 14.9023 13.8360
1 8.9175 13.1256 13.6805
1 8.0258 15.7129 14.8021
1 9.8092 13.9363 14.6467
1 7.1340 12.9702 15.4572
1 8.9175 14.7469 15.6127
1 8.0258 13.7808 16.4234
1 9.8092 15.5575 16.5788
1 10.7010 14.9023 13.8360
1 12.4845 13.1256 13.6805
1 11.5928 15.7129 14.8021
1 13.3763 13.9363 14.6467
1 10.7010 12.9702 15.4572
1 12.4845 14.7469 15.6127
1 11.5928 13.7808 16.4234
1 13.3763 15.5575 16.5788
1 14.2680 14.9023 13.8360
1 16.0515 13.1256 13.6805
1 15.1598 15.7129 14.8021
1 16.9432 13.9363 14.6467
1 14.2680 12.9702 15.4572
1 16.0515 14.7469 15.6127
1 15.1598 13.7808 16.4234
1 16.9432 15.5575 16.5788
1 0.0000 0.3777 16.1459
1 1.7835 -1.3990 15.9904
1 0.8918 1.1884 17.1119
1 2.6752 -0.5883 16.9564
1 3.5670 0.3777 16.1459
1 5.3505 -1.3990 15.9904
1 4.4588 1.1884 17.1119
1 6.2422 -0.5883 16.9564
1 7.1340 0.3777 16.1459
1 8.9175 -1.3990 15.9904
1 8.0258 1.1884 17.1119
1 9.8092 -0.5883 16.9564
1 10.7010 0.3777 16.1459
1 12.4845 -1.3990 15.9904
1 11.5928 1.1884 17.1119
1 13.3763 -0.5883 16.9564
1 14.2680 0.3777 16.1459
1 16.0515 -1.3990 15.9904
1 15.1598 1.1884 17.1119
1 16.9432 -0.5883 16.9564
1 0.0000 3.9312 16.4567
1 1.7835 2.1544 16.3013
1 0.8918 4.7418 17.4228
1 2.6752 2.9651 17.2673
1 3.5670 3.9312 16.4567
1 5.3505 2.1544 16.3013
1 4.4588 4.7418 17.4228
1 6.2422 2.9651 17.2673
1 7.1340 3.9312 16.4567
1 8.9175 2.1544 16.3013
1 8.0258 4.7418 17.4228
1 9.8092 2.9651 17.2673
1 10.7010 3.9312 16.4567
1 12.4845 2.1544 16.3013
1 11.5928 4.7418 17.4228
1 13.3763 2.9651 17.2673
1 14.2680 3.9312 16.4567
1 16.0515 2.1544 16.3013
1 15.1598 4.7418 17.4228
1 16.9432 2.9651 17.2673
1 0.0000 7.4846 16.7676
1 1.7835 5.7079 16.6122
1 0.8918 8.2952 17.7337
1 2.6752 6.5185 17.5782
1 3.5670 7.4846 16.7676
1 5.3505 5.7079 16.6122
1 4.4588 8.2952 17.7337
1 6.2422 6.5185 17.5782
1 7.1340 7.4846 16.7676
1 8.9175 5.7079 16.6122
1 8.0258 8.2952 17.7337
1 9.8092 6.5185 17.5782
1 10.7010 7.4846 16.7676
1 12.4845 5.7079 16.6122
1 11.5928 8.2952 17.7337
1 13.3763 6.5185 17.5782
1 14.2680 7.4846 16.7676
1 16.0515 5.7079 16.6122
1 15.1598 8.2952 17.7337
1 16.9432 6.5185 17.5782
1 0.0000 11.0380 17.0785
1 1.7835 9.2613 16.9231
1 0.8918 11.8487 18.0445
1 2.6752 10.0720 17.8891
1 3.5670 11.0380 17.0785
1 5.3505 9.2613 16.9231
1 4.4588 11.8487 18.0445
1 6.2422 10.0720 17.8891
1 7.1340 11.0380 17.0785
1 8.9175 9.2613 16.9231
1 8.0258 11.8487 18.0445
1 9.8092 10.0720 17.8891
1 10.7010 11.0380 17.0785
1 12.4845 9.2613 16.9231
1 11.5928 11.8487 18.0445
1 13.3763 10.0720 17.8891
1 14.2680 11.0380 17.0785
1 16.0515 9.2613 16.9231
1 15.1598 11.8487 18.0445
1 16.9432 10.0720 17.8891
1 0.0000 14.5914 17.3894
1 1.7835 12.8147 17.2340
1 0.8918 15.4020 18.3554
1 2.6752 13.6254 18.2000
1 3.5670 14.5914 17.3894
1 5.3505 12.8147 17.2340
1 4.4588 15.4020 18.3554
1 6.2422 13.6254 18.2000
1 7.1340 14.5914 17.3894
1 8.9175 12.8147 17.2340
1 8.0258 15.4020 18.3554
1 9.8092 13.6254 18.2000
1 10.7010 14.5914 17.3894
1 12.4845 12.8147 17.2340
1 11.5928 15.4020 18.3554
1 13.3763 13.6254 18.2000
1 14.2680 14.5914 17.3894
1 16.0515 12.8147 17.2340
1 15.1598 15.4020 18.3554
1 16.9432 13.6254 18.2000