8000
Atoms. Timestep. 0.0
1 0.0000 0.0000 0.0000
2 0.0000 1.6213 1.9322
3 1.7835 -0.1554 1.7767
4 1.7835 1.7767 0.1554
5 0.8918 0.8106 0.9661
8 2.6752 2.5873 1.1215
9 3.5670 0.0000 0.0000
10 3.5670 1.6213 1.9322
11 5.3505 -0.1554 1.7767
12 5.3505 1.7767 0.1554
13 4.4588 0.8106 0.9661
16 6.2422 2.5873 1.1215
17 7.1340 0.0000 0.0000
18 7.1340 1.6213 1.9322
19 8.9175 -0.1554 1.7767
20 8.9175 1.7767 0.1554
21 8.0258 0.8106 0.9661
24 9.8092 2.5873 1.1215
25 10.7010 0.0000 0.0000
26 10.7010 1.6213 1.9322
27 12.4845 -0.1554 1.7767
28 12.4845 1.7767 0.1554
29 11.5928 0.8106 0.9661
32 13.3763 2.5873 1.1215
33 14.2680 0.0000 0.0000
34 14.2680 1.6213 1.9322
35 16.0515 -0.1554 1.7767
36 16.0515 1.7767 0.1554
37 15.1598 0.8106 0.9661
40 16.9432 2.5873 1.1215
41 17.8350 0.0000 0.0000
42 17.8350 1.6213 1.9322
43 19.6185 -0.1554 1.7767
44 19.6185 1.7767 0.1554
45 18.7268 0.8106 0.9661
48 20.5102 2.5873 1.1215
49 21.4020 0.0000 0.0000
50 21.4020 1.6213 1.9322
51 23.1855 -0.1554 1.7767
52 23.1855 1.7767 0.1554
53 22.2938 0.8106 0.9661
56 24.0772 2.5873 1.1215
57 24.9690 0.0000 0.0000
58 24.9690 1.6213 1.9322
59 26.7525 -0.1554 1.7767
60 26.7525 1.7767 0.1554
61 25.8608 0.8106 0.9661
64 27.6442 2.5873 1.1215
65 28.5360 0.0000 0.0000
66 28.5360 1.6213 1.9322
67 30.3195 -0.1554 1.7767
68 30.3195 1.7767 0.1554
69 29.4278 0.8106 0.9661
72 31.2112 2.5873 1.1215
73 32.1030 0.0000 0.0000
74 32.1030 1.6213 1.9322
75 33.8865 -0.1554 1.7767
76 33.8865 1.7767 0.1554
77 32.9948 0.8106 0.9661
80 34.7782 2.5873 1.1215
81 0.0000 3.5534 0.3109
82 0.0000 5.1747 2.2430
83 1.7835 3.3980 2.0876
84 1.7835 5.3301 0.4663
85 0.8918 4.3641 1.2770
88 2.6752 6.1408 1.4324
89 3.5670 3.5534 0.3109
90 3.5670 5.1747 2.2430
91 5.3505 3.3980 2.0876
92 5.3505 5.3301 0.4663
93 4.4588 4.3641 1.2770
96 6.2422 6.1408 1.4324
97 7.1340 3.5534 0.3109
98 7.1340 5.1747 2.2430
99 8.9175 3.3980 2.0876
100 8.9175 5.3301 0.4663
101 8.0258 4.3641 1.2770
104 9.8092 6.1408 1.4324
105 10.7010 3.5534 0.3109
106 10.7010 5.1747 2.2430
107 12.4845 3.3980 2.0876
108 12.4845 5.3301 0.4663
109 11.5928 4.3641 1.2770
112 13.3763 6.1408 1.4324
113 14.2680 3.5534 0.3109
114 14.2680 5.1747 2.2430
115 16.0515 3.3980 2.0876
116 16.0515 5.3301 0.4663
117 15.1598 4.3641 1.2770
120 16.9432 6.1408 1.4324
121 17.8350 3.5534 0.3109
122 17.8350 5.1747 2.2430
123 19.6185 3.3980 2.0876
124 19.6185 5.3301 0.4663
125 18.7268 4.3641 1.2770
128 20.5102 6.1408 1.4324
129 21.4020 3.5534 0.3109
130 21.4020 5.1747 2.2430
131 23.1855 3.3980 2.0876
132 23.1855 5.3301 0.4663
133 22.2938 4.3641 1.2770
136 24.0772 6.1408 1.4324
137 24.9690 3.5534 0.3109
138 24.9690 5.1747 2.2430
139 26.7525 3.3980 2.0876
140 26.7525 5.3301 0.4663
141 25.8608 4.3641 1.2770
144 27.6442 6.1408 1.4324
145 28.5360 3.5534 0.3109
146 28.5360 5.1747 2.2430
147 30.3195 3.3980 2.0876
148 30.3195 5.3301 0.4663
149 29.4278 4.3641 1.2770
152 31.2112 6.1408 1.4324
153 32.1030 3.5534 0.3109
154 32.1030 5.1747 2.2430
155 33.8865 3.3980 2.0876
156 33.8865 5.3301 0.4663
157 32.9948 4.3641 1.2770
160 34.7782 6.1408 1.4324
161 0.0000 7.1069 0.6218
162 0.0000 8.7281 2.5539
163 1.7835 6.9514 2.3985
164 1.7835 8.8836 0.7772
165 0.8918 7.9175 1.5878
168 2.6752 9.6942 1.7433
169 3.5670 7.1069 0.6218
170 3.5670 8.7281 2.5539
171 5.3505 6.9514 2.3985
172 5.3505 8.8836 0.7772
173 4.4588 7.9175 1.5878
176 6.2422 9.6942 1.7433
177 7.1340 7.1069 0.6218
178 7.1340 8.7281 2.5539
179 8.9175 6.9514 2.3985
180 8.9175 8.8836 0.7772
181 8.0258 7.9175 1.5878
184 9.8092 9.6942 1.7433
185 10.7010 7.1069 0.6218
186 10.7010 8.7281 2.5539
187 12.4845 6.9514 2.3985
188 12.4845 8.8836 0.7772
189 11.5928 7.9175 1.5878
192 13.3763 9.6942 1.7433
193 14.2680 7.1069 0.6218
194 14.2680 8.7281 2.5539
195 16.0515 6.9514 2.3985
196 16.0515 8.8836 0.7772
197 15.1598 7.9175 1.5878
200 16.9432 9.6942 1.7433
201 17.8350 7.1069 0.6218
202 17.8350 8.7281 2.5539
203 19.6185 6.9514 2.3985
204 19.6185 8.8836 0.7772
205 18.7268 7.9175 1.5878
208 20.5102 9.6942 1.7433
209 21.4020 7.1069 0.6218
210 21.4020 8.7281 2.5539
211 23.1855 6.9514 2.3985
212 23.1855 8.8836 0.7772
213 22.2938 7.9175 1.5878
216 24.0772 9.6942 1.7433
217 24.9690 7.1069 0.6218
218 24.9690 8.7281 2.5539
219 26.7525 6.9514 2.3985
220 26.7525 8.8836 0.7772
221 25.8608 7.9175 1.5878
224 27.6442 9.6942 1.7433
225 28.5360 7.1069 0.6218
226 28.5360 8.7281 2.5539
227 30.3195 6.9514 2.3985
228 30.3195 8.8836 0.7772
229 29.4278 7.9175 1.5878
232 31.2112 9.6942 1.7433
233 32.1030 7.1069 0.6218
234 32.1030 8.7281 2.5539
235 33.8865 6.9514 2.3985
236 33.8865 8.8836 0.7772
237 32.9948 7.9175 1.5878
240 34.7782 9.6942 1.7433
241 0.0000 10.6603 0.9327
242 0.0000 12.2816 2.8648
243 1.7835 10.5048 2.7094
244 1.7835 12.4370 1.0881
245 0.8918 11.4710 1.8987
248 2.6752 13.2477 2.0542
249 3.5670 10.6603 0.9327
250 3.5670 12.2816 2.8648
251 5.3505 10.5048 2.7094
252 5.3505 12.4370 1.0881
253 4.4588 11.4710 1.8987
256 6.2422 13.2477 2.0542
257 7.1340 10.6603 0.9327
258 7.1340 12.2816 2.8648
259 8.9175 10.5048 2.7094
260 8.9175 12.4370 1.0881
261 8.0258 11.4710 1.8987
264 9.8092 13.2477 2.0542
265 10.7010 10.6603 0.9327
266 10.7010 12.2816 2.8648
267 12.4845 10.5048 2.7094
268 12.4845 12.4370 1.0881
269 11.5928 11.4710 1.8987
272 13.3763 13.2477 2.0542
273 14.2680 10.6603 0.9327
274 14.2680 12.2816 2.8648
275 16.0515 10.5048 2.7094
276 16.0515 12.4370 1.0881
277 15.1598 11.4710 1.8987
280 16.9432 13.2477 2.0542
281 17.8350 10.6603 0.9327
282 17.8350 12.2816 2.8648
283 19.6185 10.5048 2.7094
284 19.6185 12.4370 1.0881
285 18.7268 11.4710 1.8987
288 20.5102 13.2477 2.0542
289 21.4020 10.6603 0.9327
290 21.4020 12.2816 2.8648
291 23.1855 10.5048 2.7094
292 23.1855 12.4370 1.0881
293 22.2938 11.4710 1.8987
296 24.0772 13.2477 2.0542
297 24.9690 10.6603 0.9327
298 24.9690 12.2816 2.8648
299 26.7525 10.5048 2.7094
300 26.7525 12.4370 1.0881
301 25.8608 11.4710 1.8987
304 27.6442 13.2477 2.0542
305 28.5360 10.6603 0.9327
306 28.5360 12.2816 2.8648
307 30.3195 10.5048 2.7094
308 30.3195 12.4370 1.0881
309 29.4278 11.4710 1.8987
312 31.2112 13.2477 2.0542
313 32.1030 10.6603 0.9327
314 32.1030 12.2816 2.8648
315 33.8865 10.5048 2.7094
316 33.8865 12.4370 1.0881
317 32.9948 11.4710 1.8987
320 34.7782 13.2477 2.0542
321 0.0000 14.2137 1.2435
322 0.0000 15.8350 3.1757
323 1.7835 14.0583 3.0203
324 1.7835 15.9904 1.3990
325 0.8918 15.0244 2.2096
328 2.6752 16.8010 2.3651
329 3.5670 14.2137 1.2435
330 3.5670 15.8350 3.1757
331 5.3505 14.0583 3.0203
332 5.3505 15.9904 1.3990
333 4.4588 15.0244 2.2096
336 6.2422 16.8010 2.3651
337 7.1340 14.2137 1.2435
338 7.1340 15.8350 3.1757
339 8.9175 14.0583 3.0203
340 8.9175 15.9904 1.3990
341 8.0258 15.0244 2.2096
344 9.8092 16.8010 2.3651
345 10.7010 14.2137 1.2435
346 10.7010 15.8350 3.1757
347 12.4845 14.0583 3.0203
348 12.4845 15.9904 1.3990
349 11.5928 15.0244 2.2096
352 13.3763 16.8010 2.3651
353 14.2680 14.2137 1.2435
354 14.2680 15.8350 3.1757
355 16.0515 14.0583 3.0203
356 16.0515 15.9904 1.3990
357 15.1598 15.0244 2.2096
360 16.9432 16.8010 2.3651
361 17.8350 14.2137 1.2435
362 17.8350 15.8350 3.1757
363 19.6185 14.0583 3.0203
364 19.6185 15.9904 1.3990
365 18.7268 15.0244 2.2096
368 20.5102 16.8010 2.3651
369 21.4020 14.2137 1.2435
370 21.4020 15.8350 3.1757
371 23.1855 14.0583 3.0203
372 23.1855 15.9904 1.3990
373 22.2938 15.0244 2.2096
376 24.0772 16.8010 2.3651
377 24.9690 14.2137 1.2435
378 24.9690 15.8350 3.1757
379 26.7525 14.0583 3.0203
380 26.7525 15.9904 1.3990
381 25.8608 15.0244 2.2096
384 27.6442 16.8010 2.3651
385 28.5360 14.2137 1.2435
386 28.5360 15.8350 3.1757
387 30.3195 14.0583 3.0203
388 30.3195 15.9904 1.3990
389 29.4278 15.0244 2.2096
392 31.2112 16.8010 2.3651
393 32.1030 14.2137 1.2435
394 32.1030 15.8350 3.1757
395 33.8865 14.0583 3.0203
396 33.8865 15.9904 1.3990
397 32.9948 15.0244 2.2096
400 34.7782 16.8010 2.3651
401 0.0000 17.7671 1.5544
402 0.0000 19.3884 3.4866
403 1.7835 17.6117 3.3311
404 1.7835 19.5438 1.7099
405 0.8918 18.5778 2.5205
408 2.6752 20.3544 2.6759
409 3.5670 17.7671 1.5544
410 3.5670 19.3884 3.4866
411 5.3505 17.6117 3.3311
412 5.3505 19.5438 1.7099
413 4.4588 18.5778 2.5205
416 6.2422 20.3544 2.6759
417 7.1340 17.7671 1.5544
418 7.1340 19.3884 3.4866
419 8.9175 17.6117 3.3311
420 8.9175 19.5438 1.7099
421 8.0258 18.5778 2.5205
424 9.8092 20.3544 2.6759
425 10.7010 17.7671 1.5544
426 10.7010 19.3884 3.4866
427 12.4845 17.6117 3.3311
428 12.4845 19.5438 1.7099
429 11.5928 18.5778 2.5205
432 13.3763 20.3544 2.6759
433 14.2680 17.7671 1.5544
434 14.2680 19.3884 3.4866
435 16.0515 17.6117 3.3311
436 16.0515 19.5438 1.7099
437 15.1598 18.5778 2.5205
440 16.9432 20.3544 2.6759
441 17.8350 17.7671 1.5544
442 17.8350 19.3884 3.4866
443 19.6185 17.6117 3.3311
444 19.6185 19.5438 1.7099
445 18.7268 18.5778 2.5205
448 20.5102 20.3544 2.6759
449 21.4020 17.7671 1.5544
450 21.4020 19.3884 3.4866
451 23.1855 17.6117 3.3311
452 23.1855 19.5438 1.7099
453 22.2938 18.5778 2.5205
456 24.0772 20.3544 2.6759
457 24.9690 17.7671 1.5544
458 24.9690 19.3884 3.4866
459 26.7525 17.6117 3.3311
460 26.7525 19.5438 1.7099
461 25.8608 18.5778 2.5205
464 27.6442 20.3544 2.6759
465 28.5360 17.7671 1.5544
466 28.5360 19.3884 3.4866
467 30.3195 17.6117 3.3311
468 30.3195 19.5438 1.7099
469 29.4278 18.5778 2.5205
472 31.2112 20.3544 2.6759
473 32.1030 17.7671 1.5544
474 32.1030 19.3884 3.4866
475 33.8865 17.6117 3.3311
476 33.8865 19.5438 1.7099
477 32.9948 18.5778 2.5205
480 34.7782 20.3544 2.6759
481 0.0000 21.3206 1.8653
482 0.0000 22.9418 3.7975
483 1.7835 21.1651 3.6420
484 1.7835 23.0973 2.0207
485 0.8918 22.1312 2.8314
488 2.6752 23.9079 2.9868
489 3.5670 21.3206 1.8653
490 3.5670 22.9418 3.7975
491 5.3505 21.1651 3.6420
492 5.3505 23.0973 2.0207
493 4.4588 22.1312 2.8314
496 6.2422 23.9079 2.9868
497 7.1340 21.3206 1.8653
498 7.1340 22.9418 3.7975
499 8.9175 21.1651 3.6420
500 8.9175 23.0973 2.0207
501 8.0258 22.1312 2.8314
504 9.8092 23.9079 2.9868
505 10.7010 21.3206 1.8653
506 10.7010 22.9418 3.7975
507 12.4845 21.1651 3.6420
508 12.4845 23.0973 2.0207
509 11.5928 22.1312 2.8314
512 13.3763 23.9079 2.9868
513 14.2680 21.3206 1.8653
514 14.2680 22.9418 3.7975
515 16.0515 21.1651 3.6420
516 16.0515 23.0973 2.0207
517 15.1598 22.1312 2.8314
520 16.9432 23.9079 2.9868
521 17.8350 21.3206 1.8653
522 17.8350 22.9418 3.7975
523 19.6185 21.1651 3.6420
524 19.6185 23.0973 2.0207
525 18.7268 22.1312 2.8314
528 20.5102 23.9079 2.9868
529 21.4020 21.3206 1.8653
530 21.4020 22.9418 3.7975
531 23.1855 21.1651 3.6420
532 23.1855 23.0973 2.0207
533 22.2938 22.1312 2.8314
536 24.0772 23.9079 2.9868
537 24.9690 21.3206 1.8653
538 24.9690 22.9418 3.7975
539 26.7525 21.1651 3.6420
540 26.7525 23.0973 2.0207
541 25.8608 22.1312 2.8314
544 27.6442 23.9079 2.9868
545 28.5360 21.3206 1.8653
546 28.5360 22.9418 3.7975
547 30.3195 21.1651 3.6420
548 30.3195 23.0973 2.0207
549 29.4278 22.1312 2.8314
552 31.2112 23.9079 2.9868
553 32.1030 21.3206 1.8653
554 32.1030 22.9418 3.7975
555 33.8865 21.1651 3.6420
556 33.8865 23.0973 2.0207
557 32.9948 22.1312 2.8314
560 34.7782 23.9079 2.9868
561 0.0000 24.8740 2.1762
562 0.0000 26.4953 4.1083
563 1.7835 24.7185 3.9529
564 1.7835 26.6507 2.3316
565 0.8918 25.6847 3.1423
568 2.6752 27.4613 3.2977
569 3.5670 24.8740 2.1762
570 3.5670 26.4953 4.1083
571 5.3505 24.7185 3.9529
572 5.3505 26.6507 2.3316
573 4.4588 25.6847 3.1423
576 6.2422 27.4613 3.2977
577 7.1340 24.8740 2.1762
578 7.1340 26.4953 4.1083
579 8.9175 24.7185 3.9529
580 8.9175 26.6507 2.3316
581 8.0258 25.6847 3.1423
584 9.8092 27.4613 3.2977
585 10.7010 24.8740 2.1762
586 10.7010 26.4953 4.1083
587 12.4845 24.7185 3.9529
588 12.4845 26.6507 2.3316
589 11.5928 25.6847 3.1423
592 13.3763 27.4613 3.2977
593 14.2680 24.8740 2.1762
594 14.2680 26.4953 4.1083
595 16.0515 24.7185 3.9529
596 16.0515 26.6507 2.3316
597 15.1598 25.6847 3.1423
600 16.9432 27.4613 3.2977
601 17.8350 24.8740 2.1762
602 17.8350 26.4953 4.1083
603 19.6185 24.7185 3.9529
604 19.6185 26.6507 2.3316
605 18.7268 25.6847 3.1423
608 20.5102 27.4613 3.2977
609 21.4020 24.8740 2.1762
610 21.4020 26.4953 4.1083
611 23.1855 24.7185 3.9529
612 23.1855 26.6507 2.3316
613 22.2938 25.6847 3.1423
616 24.0772 27.4613 3.2977
617 24.9690 24.8740 2.1762
618 24.9690 26.4953 4.1083
619 26.7525 24.7185 3.9529
620 26.7525 26.6507 2.3316
621 25.8608 25.6847 3.1423
624 27.6442 27.4613 3.2977
625 28.5360 24.8740 2.1762
626 28.5360 26.4953 4.1083
627 30.3195 24.7185 3.9529
628 30.3195 26.6507 2.3316
629 29.4278 25.6847 3.1423
632 31.2112 27.4613 3.2977
633 32.1030 24.8740 2.1762
634 32.1030 26.4953 4.1083
635 33.8865 24.7185 3.9529
636 33.8865 26.6507 2.3316
637 32.9948 25.6847 3.1423
640 34.7782 27.4613 3.2977
641 0.0000 28.4274 2.4871
642 0.0000 30.0487 4.4192
643 1.7835 28.2720 4.2638
644 1.7835 30.2041 2.6425
645 0.8918 29.2381 3.4532
648 2.6752 31.0147 3.6086
649 3.5670 28.4274 2.4871
650 3.5670 30.0487 4.4192
651 5.3505 28.2720 4.2638
652 5.3505 30.2041 2.6425
653 4.4588 29.2381 3.4532
656 6.2422 31.0147 3.6086
657 7.1340 28.4274 2.4871
658 7.1340 30.0487 4.4192
659 8.9175 28.2720 4.2638
660 8.9175 30.2041 2.6425
661 8.0258 29.2381 3.4532
664 9.8092 31.0147 3.6086
665 10.7010 28.4274 2.4871
666 10.7010 30.0487 4.4192
667 12.4845 28.2720 4.2638
668 12.4845 30.2041 2.6425
669 11.5928 29.2381 3.4532
672 13.3763 31.0147 3.6086
673 14.2680 28.4274 2.4871
674 14.2680 30.0487 4.4192
675 16.0515 28.2720 4.2638
676 16.0515 30.2041 2.6425
677 15.1598 29.2381 3.4532
680 16.9432 31.0147 3.6086
681 17.8350 28.4274 2.4871
682 17.8350 30.0487 4.4192
683 19.6185 28.2720 4.2638
684 19.6185 30.2041 2.6425
685 18.7268 29.2381 3.4532
688 20.5102 31.0147 3.6086
689 21.4020 28.4274 2.4871
690 21.4020 30.0487 4.4192
691 23.1855 28.2720 4.2638
692 23.1855 30.2041 2.6425
693 22.2938 29.2381 3.4532
696 24.0772 31.0147 3.6086
697 24.9690 28.4274 2.4871
698 24.9690 30.0487 4.4192
699 26.7525 28.2720 4.2638
700 26.7525 30.2041 2.6425
701 25.8608 29.2381 3.4532
704 27.6442 31.0147 3.6086
705 28.5360 28.4274 2.4871
706 28.5360 30.0487 4.4192
707 30.3195 28.2720 4.2638
708 30.3195 30.2041 2.6425
709 29.4278 29.2381 3.4532
712 31.2112 31.0147 3.6086
713 32.1030 28.4274 2.4871
714 32.1030 30.0487 4.4192
715 33.8865 28.2720 4.2638
716 33.8865 30.2041 2.6425
717 32.9948 29.2381 3.4532
720 34.7782 31.0147 3.6086
721 0.0000 31.9808 2.7980
722 0.0000 33.6021 4.7301
723 1.7835 31.8254 4.5747
724 1.7835 33.7576 2.9534
725 0.8918 32.7915 3.7640
728 2.6752 34.5681 3.9195
729 3.5670 31.9808 2.7980
730 3.5670 33.6021 4.7301
731 5.3505 31.8254 4.5747
732 5.3505 33.7576 2.9534
733 4.4588 32.7915 3.7640
736 6.2422 34.5681 3.9195
737 7.1340 31.9808 2.7980
738 7.1340 33.6021 4.7301
739 8.9175 31.8254 4.5747
740 8.9175 33.7576 2.9534
741 8.0258 32.7915 3.7640
744 9.8092 34.5681 3.9195
745 10.7010 31.9808 2.7980
746 10.7010 33.6021 4.7301
747 12.4845 31.8254 4.5747
748 12.4845 33.7576 2.9534
749 11.5928 32.7915 3.7640
752 13.3763 34.5681 3.9195
753 14.2680 31.9808 2.7980
754 14.2680 33.6021 4.7301
755 16.0515 31.8254 4.5747
756 16.0515 33.7576 2.9534
757 15.1598 32.7915 3.7640
760 16.9432 34.5681 3.9195
761 17.8350 31.9808 2.7980
762 17.8350 33.6021 4.7301
763 19.6185 31.8254 4.5747
764 19.6185 33.7576 2.9534
765 18.7268 32.7915 3.7640
768 20.5102 34.5681 3.9195
769 21.4020 31.9808 2.7980
770 21.4020 33.6021 4.7301
771 23.1855 31.8254 4.5747
772 23.1855 33.7576 2.9534
773 22.2938 32.7915 3.7640
776 24.0772 34.5681 3.9195
777 24.9690 31.9808 2.7980
778 24.9690 33.6021 4.7301
779 26.7525 31.8254 4.5747
780 26.7525 33.7576 2.9534
781 25.8608 32.7915 3.7640
784 27.6442 34.5681 3.9195
785 28.5360 31.9808 2.7980
786 28.5360 33.6021 4.7301
787 30.3195 31.8254 4.5747
788 30.3195 33.7576 2.9534
789 29.4278 32.7915 3.7640
792 31.2112 34.5681 3.9195
793 32.1030 31.9808 2.7980
794 32.1030 33.6021 4.7301
795 33.8865 31.8254 4.5747
796 33.8865 33.7576 2.9534
797 32.9948 32.7915 3.7640
800 34.7782 34.5681 3.9195
6 0.8918 2.4319 2.8982
7 2.6752 0.6552 2.7428
801 0.0000 -0.3109 3.5534
802 0.0000 1.3104 5.4856
803 1.7835 -0.4663 5.3301
804 1.7835 1.4658 3.7089
805 0.8918 0.4998 4.5195
808 2.6752 2.2765 4.6749
14 4.4588 2.4319 2.8982
15 6.2422 0.6552 2.7428
809 3.5670 -0.3109 3.5534
810 3.5670 1.3104 5.4856
811 5.3505 -0.4663 5.3301
812 5.3505 1.4658 3.7089
813 4.4588 0.4998 4.5195
816 6.2422 2.2765 4.6749
22 8.0258 2.4319 2.8982
23 9.8092 0.6552 2.7428
817 7.1340 -0.3109 3.5534
818 7.1340 1.3104 5.4856
819 8.9175 -0.4663 5.3301
820 8.9175 1.4658 3.7089
821 8.0258 0.4998 4.5195
824 9.8092 2.2765 4.6749
30 11.5928 2.4319 2.8982
31 13.3763 0.6552 2.7428
825 10.7010 -0.3109 3.5534
826 10.7010 1.3104 5.4856
827 12.4845 -0.4663 5.3301
828 12.4845 1.4658 3.7089
829 11.5928 0.4998 4.5195
832 13.3763 2.2765 4.6749
38 15.1598 2.4319 2.8982
39 16.9432 0.6552 2.7428
833 14.2680 -0.3109 3.5534
834 14.2680 1.3104 5.4856
835 16.0515 -0.4663 5.3301
836 16.0515 1.4658 3.7089
837 15.1598 0.4998 4.5195
840 16.9432 2.2765 4.6749
46 18.7268 2.4319 2.8982
47 20.5102 0.6552 2.7428
841 17.8350 -0.3109 3.5534
842 17.8350 1.3104 5.4856
843 19.6185 -0.4663 5.3301
844 19.6185 1.4658 3.7089
845 18.7268 0.4998 4.5195
848 20.5102 2.2765 4.6749
54 22.2938 2.4319 2.8982
55 24.0772 0.6552 2.7428
849 21.4020 -0.3109 3.5534
850 21.4020 1.3104 5.4856
851 23.1855 -0.4663 5.3301
852 23.1855 1.4658 3.7089
853 22.2938 0.4998 4.5195
856 24.0772 2.2765 4.6749
62 25.8608 2.4319 2.8982
63 27.6442 0.6552 2.7428
857 24.9690 -0.3109 3.5534
858 24.9690 1.3104 5.4856
859 26.7525 -0.4663 5.3301
860 26.7525 1.4658 3.7089
861 25.8608 0.4998 4.5195
864 27.6442 2.2765 4.6749
70 29.4278 2.4319 2.8982
71 31.2112 0.6552 2.7428
865 28.5360 -0.3109 3.5534
866 28.5360 1.3104 5.4856
867 30.3195 -0.4663 5.3301
868 30.3195 1.4658 3.7089
869 29.4278 0.4998 4.5195
872 31.2112 2.2765 4.6749
78 32.9948 2.4319 2.8982
79 34.7782 0.6552 2.7428
873 32.1030 -0.3109 3.5534
874 32.1030 1.3104 5.4856
875 33.8865 -0.4663 5.3301
876 33.8865 1.4658 3.7089
877 32.9948 0.4998 4.5195
880 34.7782 2.2765 4.6749
86 0.8918 5.9853 3.2091
87 2.6752 4.2086 3.0537
881 0.0000 3.2425 3.8643
882 0.0000 4.8638 5.7965
883 1.7835 3.0871 5.6410
884 1.7835 5.0193 4.0198
885 0.8918 4.0532 4.8304
888 2.6752 5.8299 4.9858
94 4.4588 5.9853 3.2091
95 6.2422 4.2086 3.0537
889 3.5670 3.2425 3.8643
890 3.5670 4.8638 5.7965
891 5.3505 3.0871 5.6410
892 5.3505 5.0193 4.0198
893 4.4588 4.0532 4.8304
896 6.2422 5.8299 4.9858
102 8.0258 5.9853 3.2091
103 9.8092 4.2086 3.0537
897 7.1340 3.2425 3.8643
898 7.1340 4.8638 5.7965
899 8.9175 3.0871 5.6410
900 8.9175 5.0193 4.0198
901 8.0258 4.0532 4.8304
904 9.8092 5.8299 4.9858
110 11.5928 5.9853 3.2091
111 13.3763 4.2086 3.0537
905 10.7010 3.2425 3.8643
906 10.7010 4.8638 5.7965
907 12.4845 3.0871 5.6410
908 12.4845 5.0193 4.0198
909 11.5928 4.0532 4.8304
912 13.3763 5.8299 4.9858
118 15.1598 5.9853 3.2091
119 16.9432 4.2086 3.0537
913 14.2680 3.2425 3.8643
914 14.2680 4.8638 5.7965
915 16.0515 3.0871 5.6410
916 16.0515 5.0193 4.0198
917 15.1598 4.0532 4.8304
920 16.9432 5.8299 4.9858
126 18.7268 5.9853 3.2091
127 20.5102 4.2086 3.0537
921 17.8350 3.2425 3.8643
922 17.8350 4.8638 5.7965
923 19.6185 3.0871 5.6410
924 19.6185 5.0193 4.0198
925 18.7268 4.0532 4.8304
928 20.5102 5.8299 4.9858
134 22.2938 5.9853 3.2091
135 24.0772 4.2086 3.0537
929 21.4020 3.2425 3.8643
930 21.4020 4.8638 5.7965
931 23.1855 3.0871 5.6410
932 23.1855 5.0193 4.0198
933 22.2938 4.0532 4.8304
936 24.0772 5.8299 4.9858
142 25.8608 5.9853 3.2091
143 27.6442 4.2086 3.0537
937 24.9690 3.2425 3.8643
938 24.9690 4.8638 5.7965
939 26.7525 3.0871 5.6410
940 26.7525 5.0193 4.0198
941 25.8608 4.0532 4.8304
944 27.6442 5.8299 4.9858
150 29.4278 5.9853 3.2091
151 31.2112 4.2086 3.0537
945 28.5360 3.2425 3.8643
946 28.5360 4.8638 5.7965
947 30.3195 3.0871 5.6410
948 30.3195 5.0193 4.0198
949 29.4278 4.0532 4.8304
952 31.2112 5.8299 4.9858
158 32.9948 5.9853 3.2091
159 34.7782 4.2086 3.0537
953 32.1030 3.2425 3.8643
954 32.1030 4.8638 5.7965
955 33.8865 3.0871 5.6410
956 33.8865 5.0193 4.0198
957 32.9948 4.0532 4.8304
960 34.7782 5.8299 4.9858
166 0.8918 9.5388 3.5200
167 2.6752 7.7620 3.3646
961 0.0000 6.7960 4.1752
962 0.0000 8.4172 6.1074
963 1.7835 6.6405 5.9519
964 1.7835 8.5727 4.3306
965 0.8918 7.6066 5.1413
968 2.6752 9.3833 5.2967
174 4.4588 9.5388 3.5200
175 6.2422 7.7620 3.3646
969 3.5670 6.7960 4.1752
970 3.5670 8.4172 6.1074
971 5.3505 6.6405 5.9519
972 5.3505 8.5727 4.3306
973 4.4588 7.6066 5.1413
976 6.2422 9.3833 5.2967
182 8.0258 9.5388 3.5200
183 9.8092 7.7620 3.3646
977 7.1340 6.7960 4.1752
978 7.1340 8.4172 6.1074
979 8.9175 6.6405 5.9519
980 8.9175 8.5727 4.3306
981 8.0258 7.6066 5.1413
984 9.8092 9.3833 5.2967
190 11.5928 9.5388 3.5200
191 13.3763 7.7620 3.3646
985 10.7010 6.7960 4.1752
986 10.7010 8.4172 6.1074
987 12.4845 6.6405 5.9519
988 12.4845 8.5727 4.3306
989 11.5928 7.6066 5.1413
992 13.3763 9.3833 5.2967
198 15.1598 9.5388 3.5200
199 16.9432 7.7620 3.3646
993 14.2680 6.7960 4.1752
994 14.2680 8.4172 6.1074
995 16.0515 6.6405 5.9519
996 16.0515 8.5727 4.3306
997 15.1598 7.6066 5.1413
1000 16.9432 9.3833 5.2967
206 18.7268 9.5388 3.5200
207 20.5102 7.7620 3.3646
1001 17.8350 6.7960 4.1752
1002 17.8350 8.4172 6.1074
1003 19.6185 6.6405 5.9519
1004 19.6185 8.5727 4.3306
1005 18.7268 7.6066 5.1413
1008 20.5102 9.3833 5.2967
214 22.2938 9.5388 3.5200
215 24.0772 7.7620 3.3646
1009 21.4020 6.7960 4.1752
1010 21.4020 8.4172 6.1074
1011 23.1855 6.6405 5.9519
1012 23.1855 8.5727 4.3306
1013 22.2938 7.6066 5.1413
1016 24.0772 9.3833 5.2967
222 25.8608 9.5388 3.5200
223 27.6442 7.7620 3.3646
1017 24.9690 6.7960 4.1752
1018 24.9690 8.4172 6.1074
1019 26.7525 6.6405 5.9519
1020 26.7525 8.5727 4.3306
1021 25.8608 7.6066 5.1413
1024 27.6442 9.3833 5.2967
230 29.4278 9.5388 3.5200
231 31.2112 7.7620 3.3646
1025 28.5360 6.7960 4.1752
1026 28.5360 8.4172 6.1074
1027 30.3195 6.6405 5.9519
1028 30.3195 8.5727 4.3306
1029 29.4278 7.6066 5.1413
1032 31.2112 9.3833 5.2967
238 32.9948 9.5388 3.5200
239 34.7782 7.7620 3.3646
1033 32.1030 6.7960 4.1752
1034 32.1030 8.4172 6.1074
1035 33.8865 6.6405 5.9519
1036 33.8865 8.5727 4.3306
1037 32.9948 7.6066 5.1413
1040 34.7782 9.3833 5.2967
246 0.8918 13.0922 3.8309
247 2.6752 11.3155 3.6754
1041 0.0000 10.3494 4.4861
1042 0.0000 11.9707 6.4182
1043 1.7835 10.1940 6.2628
1044 1.7835 12.1261 4.6415
1045 0.8918 11.1601 5.4522
1048 2.6752 12.9368 5.6076
254 4.4588 13.0922 3.8309
255 6.2422 11.3155 3.6754
1049 3.5670 10.3494 4.4861
1050 3.5670 11.9707 6.4182
1051 5.3505 10.1940 6.2628
1052 5.3505 12.1261 4.6415
1053 4.4588 11.1601 5.4522
1056 6.2422 12.9368 5.6076
262 8.0258 13.0922 3.8309
263 9.8092 11.3155 3.6754
1057 7.1340 10.3494 4.4861
1058 7.1340 11.9707 6.4182
1059 8.9175 10.1940 6.2628
1060 8.9175 12.1261 4.6415
1061 8.0258 11.1601 5.4522
1064 9.8092 12.9368 5.6076
270 11.5928 13.0922 3.8309
271 13.3763 11.3155 3.6754
1065 10.7010 10.3494 4.4861
1066 10.7010 11.9707 6.4182
1067 12.4845 10.1940 6.2628
1068 12.4845 12.1261 4.6415
1069 11.5928 11.1601 5.4522
1072 13.3763 12.9368 5.6076
278 15.1598 13.0922 3.8309
279 16.9432 11.3155 3.6754
1073 14.2680 10.3494 4.4861
1074 14.2680 11.9707 6.4182
1075 16.0515 10.1940 6.2628
1076 16.0515 12.1261 4.6415
1077 15.1598 11.1601 5.4522
1080 16.9432 12.9368 5.6076
286 18.7268 13.0922 3.8309
287 20.5102 11.3155 3.6754
1081 17.8350 10.3494 4.4861
1082 17.8350 11.9707 6.4182
1083 19.6185 10.1940 6.2628
1084 19.6185 12.1261 4.6415
1085 18.7268 11.1601 5.4522
1088 20.5102 12.9368 5.6076
294 22.2938 13.0922 3.8309
295 24.0772 11.3155 3.6754
1089 21.4020 10.3494 4.4861
1090 21.4020 11.9707 6.4182
1091 23.1855 10.1940 6.2628
1092 23.1855 12.1261 4.6415
1093 22.2938 11.1601 5.4522
1096 24.0772 12.9368 5.6076
302 25.8608 13.0922 3.8309
303 27.6442 11.3155 3.6754
1097 24.9690 10.3494 4.4861
1098 24.9690 11.9707 6.4182
1099 26.7525 10.1940 6.2628
1100 26.7525 12.1261 4.6415
1101 25.8608 11.1601 5.4522
1104 27.6442 12.9368 5.6076
310 29.4278 13.0922 3.8309
311 31.2112 11.3155 3.6754
1105 28.5360 10.3494 4.4861
1106 28.5360 11.9707 6.4182
1107 30.3195 10.1940 6.2628
1108 30.3195 12.1261 4.6415
1109 29.4278 11.1601 5.4522
1112 31.2112 12.9368 5.6076
318 32.9948 13.0922 3.8309
319 34.7782 11.3155 3.6754
1113 32.1030 10.3494 4.4861
1114 32.1030 11.9707 6.4182
1115 33.8865 10.1940 6.2628
1116 33.8865 12.1261 4.6415
1117 32.9948 11.1601 5.4522
1120 34.7782 12.9368 5.6076
326 0.8918 16.6456 4.1418
327 2.6752 14.8689 3.9863
1121 0.0000 13.9028 4.7970
1122 0.0000 15.5241 6.7291
1123 1.7835 13.7474 6.5737
1124 1.7835 15.6795 4.9524
1125 0.8918 14.7135 5.7630
1128 2.6752 16.4901 5.9185
334 4.4588 16.6456 4.1418
335 6.2422 14.8689 3.9863
1129 3.5670 13.9028 4.7970
1130 3.5670 15.5241 6.7291
1131 5.3505 13.7474 6.5737
1132 5.3505 15.6795 4.9524
1133 4.4588 14.7135 5.7630
1136 6.2422 16.4901 5.9185
342 8.0258 16.6456 4.1418
343 9.8092 14.8689 3.9863
1137 7.1340 13.9028 4.7970
1138 7.1340 15.5241 6.7291
1139 8.9175 13.7474 6.5737
1140 8.9175 15.6795 4.9524
1141 8.0258 14.7135 5.7630
1144 9.8092 16.4901 5.9185
350 11.5928 16.6456 4.1418
351 13.3763 14.8689 3.9863
1145 10.7010 13.9028 4.7970
1146 10.7010 15.5241 6.7291
1147 12.4845 13.7474 6.5737
1148 12.4845 15.6795 4.9524
1149 11.5928 14.7135 5.7630
1152 13.3763 16.4901 5.9185
358 15.1598 16.6456 4.1418
359 16.9432 14.8689 3.9863
1153 14.2680 13.9028 4.7970
1154 14.2680 15.5241 6.7291
1155 16.0515 13.7474 6.5737
1156 16.0515 15.6795 4.9524
1157 15.1598 14.7135 5.7630
1160 16.9432 16.4901 5.9185
366 18.7268 16.6456 4.1418
367 20.5102 14.8689 3.9863
1161 17.8350 13.9028 4.7970
1162 17.8350 15.5241 6.7291
1163 19.6185 13.7474 6.5737
1164 19.6185 15.6795 4.9524
1165 18.7268 14.7135 5.7630
1168 20.5102 16.4901 5.9185
374 22.2938 16.6456 4.1418
375 24.0772 14.8689 3.9863
1169 21.4020 13.9028 4.7970
1170 21.4020 15.5241 6.7291
1171 23.1855 13.7474 6.5737
1172 23.1855 15.6795 4.9524
1173 22.2938 14.7135 5.7630
1176 24.0772 16.4901 5.9185
382 25.8608 16.6456 4.1418
383 27.6442 14.8689 3.9863
1177 24.9690 13.9028 4.7970
1178 24.9690 15.5241 6.7291
1179 26.7525 13.7474 6.5737
1180 26.7525 15.6795 4.9524
1181 25.8608 14.7135 5.7630
1184 27.6442 16.4901 5.9185
390 29.4278 16.6456 4.1418
391 31.2112 14.8689 3.9863
1185 28.5360 13.9028 4.7970
1186 28.5360 15.5241 6.7291
1187 30.3195 13.7474 6.5737
1188 30.3195 15.6795 4.9524
1189 29.4278 14.7135 5.7630
1192 31.2112 16.4901 5.9185
398 32.9948 16.6456 4.1418
399 34.7782 14.8689 3.9863
1193 32.1030 13.9028 4.7970
1194 32.1030 15.5241 6.7291
1195 33.8865 13.7474 6.5737
1196 33.8865 15.6795 4.9524
1197 32.9948 14.7135 5.7630
1200 34.7782 16.4901 5.9185
406 0.8918 20.1990 4.4527
407 2.6752 18.4224 4.2972
1201 0.0000 17.4562 5.1078
1202 0.0000 19.0775 7.0400
1203 1.7835 17.3008 6.8846
1204 1.7835 19.2330 5.2633
1205 0.8918 18.2669 6.0739
1208 2.6752 20.0435 6.2294
414 4.4588 20.1990 4.4527
415 6.2422 18.4224 4.2972
1209 3.5670 17.4562 5.1078
1210 3.5670 19.0775 7.0400
1211 5.3505 17.3008 6.8846
1212 5.3505 19.2330 5.2633
1213 4.4588 18.2669 6.0739
1216 6.2422 20.0435 6.2294
422 8.0258 20.1990 4.4527
423 9.8092 18.4224 4.2972
1217 7.1340 17.4562 5.1078
1218 7.1340 19.0775 7.0400
1219 8.9175 17.3008 6.8846
1220 8.9175 19.2330 5.2633
1221 8.0258 18.2669 6.0739
1224 9.8092 20.0435 6.2294
430 11.5928 20.1990 4.4527
431 13.3763 18.4224 4.2972
1225 10.7010 17.4562 5.1078
1226 10.7010 19.0775 7.0400
1227 12.4845 17.3008 6.8846
1228 12.4845 19.2330 5.2633
1229 11.5928 18.2669 6.0739
1232 13.3763 20.0435 6.2294
438 15.1598 20.1990 4.4527
439 16.9432 18.4224 4.2972
1233 14.2680 17.4562 5.1078
1234 14.2680 19.0775 7.0400
1235 16.0515 17.3008 6.8846
1236 16.0515 19.2330 5.2633
1237 15.1598 18.2669 6.0739
1240 16.9432 20.0435 6.2294
446 18.7268 20.1990 4.4527
447 20.5102 18.4224 4.2972
1241 17.8350 17.4562 5.1078
1242 17.8350 19.0775 7.0400
1243 19.6185 17.3008 6.8846
1244 19.6185 19.2330 5.2633
1245 18.7268 18.2669 6.0739
1248 20.5102 20.0435 6.2294
454 22.2938 20.1990 4.4527
455 24.0772 18.4224 4.2972
1249 21.4020 17.4562 5.1078
1250 21.4020 19.0775 7.0400
1251 23.1855 17.3008 6.8846
1252 23.1855 19.2330 5.2633
1253 22.2938 18.2669 6.0739
1256 24.0772 20.0435 6.2294
462 25.8608 20.1990 4.4527
463 27.6442 18.4224 4.2972
1257 24.9690 17.4562 5.1078
1258 24.9690 19.0775 7.0400
1259 26.7525 17.3008 6.8846
1260 26.7525 19.2330 5.2633
1261 25.8608 18.2669 6.0739
1264 27.6442 20.0435 6.2294
470 29.4278 20.1990 4.4527
471 31.2112 18.4224 4.2972
1265 28.5360 17.4562 5.1078
1266 28.5360 19.0775 7.0400
1267 30.3195 17.3008 6.8846
1268 30.3195 19.2330 5.2633
1269 29.4278 18.2669 6.0739
1272 31.2112 20.0435 6.2294
478 32.9948 20.1990 4.4527
479 34.7782 18.4224 4.2972
1273 32.1030 17.4562 5.1078
1274 32.1030 19.0775 7.0400
1275 33.8865 17.3008 6.8846
1276 33.8865 19.2330 5.2633
1277 32.9948 18.2669 6.0739
1280 34.7782 20.0435 6.2294
486 0.8918 23.7524 4.7635
487 2.6752 21.9758 4.6081
1281 0.0000 21.0097 5.4187
1282 0.0000 22.6309 7.3509
1283 1.7835 20.8542 7.1954
1284 1.7835 22.7864 5.5742
1285 0.8918 21.8204 6.3848
1288 2.6752 23.5970 6.5402
494 4.4588 23.7524 4.7635
495 6.2422 21.9758 4.6081
1289 3.5670 21.0097 5.4187
1290 3.5670 22.6309 7.3509
1291 5.3505 20.8542 7.1954
1292 5.3505 22.7864 5.5742
1293 4.4588 21.8204 6.3848
1296 6.2422 23.5970 6.5402
502 8.0258 23.7524 4.7635
503 9.8092 21.9758 4.6081
1297 7.1340 21.0097 5.4187
1298 7.1340 22.6309 7.3509
1299 8.9175 20.8542 7.1954
1300 8.9175 22.7864 5.5742
1301 8.0258 21.8204 6.3848
1304 9.8092 23.5970 6.5402
510 11.5928 23.7524 4.7635
511 13.3763 21.9758 4.6081
1305 10.7010 21.0097 5.4187
1306 10.7010 22.6309 7.3509
1307 12.4845 20.8542 7.1954
1308 12.4845 22.7864 5.5742
1309 11.5928 21.8204 6.3848
1312 13.3763 23.5970 6.5402
518 15.1598 23.7524 4.7635
519 16.9432 21.9758 4.6081
1313 14.2680 21.0097 5.4187
1314 14.2680 22.6309 7.3509
1315 16.0515 20.8542 7.1954
1316 16.0515 22.7864 5.5742
1317 15.1598 21.8204 6.3848
1320 16.9432 23.5970 6.5402
526 18.7268 23.7524 4.7635
527 20.5102 21.9758 4.6081
1321 17.8350 21.0097 5.4187
1322 17.8350 22.6309 7.3509
1323 19.6185 20.8542 7.1954
1324 19.6185 22.7864 5.5742
1325 18.7268 21.8204 6.3848
1328 20.5102 23.5970 6.5402
534 22.2938 23.7524 4.7635
535 24.0772 21.9758 4.6081
1329 21.4020 21.0097 5.4187
1330 21.4020 22.6309 7.3509