8000
Atoms. Timestep. 0.0
1 0.0000 0.0000 0.0000
1 0.0000 1.7835 1.7835
1 1.7835 0.0000 1.7835
1 1.7835 1.7835 0.0000
1 0.8918 0.8918 0.8918
1 2.6752 2.6752 0.8918
1 3.5670 0.0000 0.0000
1 3.5670 1.7835 1.7835
1 5.3505 0.0000 1.7835
1 5.3505 1.7835 0.0000
1 4.4588 0.8918 0.8918
1 6.2422 2.6752 0.8918
1 7.1340 0.0000 0.0000
1 7.1340 1.7835 1.7835
1 8.9175 0.0000 1.7835
1 8.9175 1.7835 0.0000
1 8.0258 0.8918 0.8918
1 9.8092 2.6752 0.8918
1 10.7010 0.0000 0.0000
1 10.7010 1.7835 1.7835
1 12.4845 0.0000 1.7835
1 12.4845 1.7835 0.0000
1 11.5928 0.8918 0.8918
1 13.3763 2.6752 0.8918
1 14.2680 0.0000 0.0000
1 14.2680 1.7835 1.7835
1 16.0515 0.0000 1.7835
1 16.0515 1.7835 0.0000
1 15.1598 0.8918 0.8918
1 16.9432 2.6752 0.8918
1 17.8350 0.0000 0.0000
1 17.8350 1.7835 1.7835
1 19.6185 0.0000 1.7835
1 19.6185 1.7835 0.0000
1 18.7268 0.8918 0.8918
1 20.5102 2.6752 0.8918
1 21.4020 0.0000 0.0000
1 21.4020 1.7835 1.7835
1 23.1855 0.0000 1.7835
1 23.1855 1.7835 0.0000
1 22.2938 0.8918 0.8918
1 24.0772 2.6752 0.8918
1 24.9690 0.0000 0.0000
1 24.9690 1.7835 1.7835
1 26.7525 0.0000 1.7835
1 26.7525 1.7835 0.0000
1 25.8608 0.8918 0.8918
1 27.6442 2.6752 0.8918
1 28.5360 0.0000 0.0000
1 28.5360 1.7835 1.7835
1 30.3195 0.0000 1.7835
1 30.3195 1.7835 0.0000
1 29.4278 0.8918 0.8918
1 31.2112 2.6752 0.8918
1 32.1030 0.0000 0.0000
1 32.1030 1.7835 1.7835
1 33.8865 0.0000 1.7835
1 33.8865 1.7835 0.0000
1 32.9948 0.8918 0.8918
1 34.7782 2.6752 0.8918
1 0.0000 3.5670 0.0000
1 0.0000 5.3505 1.7835
1 1.7835 3.5670 1.7835
1 1.7835 5.3505 0.0000
1 0.8918 4.4588 0.8918
1 2.6752 6.2422 0.8918
1 3.5670 3.5670 0.0000
1 3.5670 5.3505 1.7835
1 5.3505 3.5670 1.7835
1 5.3505 5.3505 0.0000
1 4.4588 4.4588 0.8918
1 6.2422 6.2422 0.8918
1 7.1340 3.5670 0.0000
1 7.1340 5.3505 1.7835
1 8.9175 3.5670 1.7835
1 8.9175 5.3505 0.0000
1 8.0258 4.4588 0.8918
1 9.8092 6.2422 0.8918
1 10.7010 3.5670 0.0000
1 10.7010 5.3505 1.7835
1 12.4845 3.5670 1.7835
1 12.4845 5.3505 0.0000
1 11.5928 4.4588 0.8918
1 13.3763 6.2422 0.8918
1 14.2680 3.5670 0.0000
1 14.2680 5.3505 1.7835
1 16.0515 3.5670 1.7835
1 16.0515 5.3505 0.0000
1 15.1598 4.4588 0.8918
1 16.9432 6.2422 0.8918
1 17.8350 3.5670 0.0000
1 17.8350 5.3505 1.7835
1 19.6185 3.5670 1.7835
1 19.6185 5.3505 0.0000
1 18.7268 4.4588 0.8918
1 20.5102 6.2422 0.8918
1 21.4020 3.5670 0.0000
1 21.4020 5.3505 1.7835
1 23.1855 3.5670 1.7835
1 23.1855 5.3505 0.0000
1 22.2938 4.4588 0.8918
1 24.0772 6.2422 0.8918
1 24.9690 3.5670 0.0000
1 24.9690 5.3505 1.7835
1 26.7525 3.5670 1.7835
1 26.7525 5.3505 0.0000
1 25.8608 4.4588 0.8918
1 27.6442 6.2422 0.8918
1 28.5360 3.5670 0.0000
1 28.5360 5.3505 1.7835
1 30.3195 3.5670 1.7835
1 30.3195 5.3505 0.0000
1 29.4278 4.4588 0.8918
1 31.2112 6.2422 0.8918
1 32.1030 3.5670 0.0000
1 32.1030 5.3505 1.7835
1 33.8865 3.5670 1.7835
1 33.8865 5.3505 0.0000
1 32.9948 4.4588 0.8918
1 34.7782 6.2422 0.8918
1 0.0000 7.1340 0.0000
1 0.0000 8.9175 1.7835
1 1.7835 7.1340 1.7835
1 1.7835 8.9175 0.0000
1 0.8918 8.0258 0.8918
1 2.6752 9.8092 0.8918
1 3.5670 7.1340 0.0000
1 3.5670 8.9175 1.7835
1 5.3505 7.1340 1.7835
1 5.3505 8.9175 0.0000
1 4.4588 8.0258 0.8918
1 6.2422 9.8092 0.8918
1 7.1340 7.1340 0.0000
1 7.1340 8.9175 1.7835
1 8.9175 7.1340 1.7835
1 8.9175 8.9175 0.0000
1 8.0258 8.0258 0.8918
1 9.8092 9.8092 0.8918
1 10.7010 7.1340 0.0000
1 10.7010 8.9175 1.7835
1 12.4845 7.1340 1.7835
1 12.4845 8.9175 0.0000
1 11.5928 8.0258 0.8918
1 13.3763 9.8092 0.8918
1 14.2680 7.1340 0.0000
1 14.2680 8.9175 1.7835
1 16.0515 7.1340 1.7835
1 16.0515 8.9175 0.0000
1 15.1598 8.0258 0.8918
1 16.9432 9.8092 0.8918
1 17.8350 7.1340 0.0000
1 17.8350 8.9175 1.7835
1 19.6185 7.1340 1.7835
1 19.6185 8.9175 0.0000
1 18.7268 8.0258 0.8918
1 20.5102 9.8092 0.8918
1 21.4020 7.1340 0.0000
1 21.4020 8.9175 1.7835
1 23.1855 7.1340 1.7835
1 23.1855 8.9175 0.0000
1 22.2938 8.0258 0.8918
1 24.0772 9.8092 0.8918
1 24.9690 7.1340 0.0000
1 24.9690 8.9175 1.7835
1 26.7525 7.1340 1.7835
1 26.7525 8.9175 0.0000
1 25.8608 8.0258 0.8918
1 27.6442 9.8092 0.8918
1 28.5360 7.1340 0.0000
1 28.5360 8.9175 1.7835
1 30.3195 7.1340 1.7835
1 30.3195 8.9175 0.0000
1 29.4278 8.0258 0.8918
1 31.2112 9.8092 0.8918
1 32.1030 7.1340 0.0000
1 32.1030 8.9175 1.7835
1 33.8865 7.1340 1.7835
1 33.8865 8.9175 0.0000
1 32.9948 8.0258 0.8918
1 34.7782 9.8092 0.8918
1 0.0000 10.7010 0.0000
1 0.0000 12.4845 1.7835
1 1.7835 10.7010 1.7835
1 1.7835 12.4845 0.0000
1 0.8918 11.5928 0.8918
1 2.6752 13.3763 0.8918
1 3.5670 10.7010 0.0000
1 3.5670 12.4845 1.7835
1 5.3505 10.7010 1.7835
1 5.3505 12.4845 0.0000
1 4.4588 11.5928 0.8918
1 6.2422 13.3763 0.8918
1 7.1340 10.7010 0.0000
1 7.1340 12.4845 1.7835
1 8.9175 10.7010 1.7835
1 8.9175 12.4845 0.0000
1 8.0258 11.5928 0.8918
1 9.8092 13.3763 0.8918
1 10.7010 10.7010 0.0000
1 10.7010 12.4845 1.7835
1 12.4845 10.7010 1.7835
1 12.4845 12.4845 0.0000
1 11.5928 11.5928 0.8918
1 13.3763 13.3763 0.8918
1 14.2680 10.7010 0.0000
1 14.2680 12.4845 1.7835
1 16.0515 10.7010 1.7835
1 16.0515 12.4845 0.0000
1 15.1598 11.5928 0.8918
1 16.9432 13.3763 0.8918
1 17.8350 10.7010 0.0000
1 17.8350 12.4845 1.7835
1 19.6185 10.7010 1.7835
1 19.6185 12.4845 0.0000
1 18.7268 11.5928 0.8918
1 20.5102 13.3763 0.8918
1 21.4020 10.7010 0.0000
1 21.4020 12.4845 1.7835
1 23.1855 10.7010 1.7835
1 23.1855 12.4845 0.0000
1 22.2938 11.5928 0.8918
1 24.0772 13.3763 0.8918
1 24.9690 10.7010 0.0000
1 24.9690 12.4845 1.7835
1 26.7525 10.7010 1.7835
1 26.7525 12.4845 0.0000
1 25.8608 11.5928 0.8918
1 27.6442 13.3763 0.8918
1 28.5360 10.7010 0.0000
1 28.5360 12.4845 1.7835
1 30.3195 10.7010 1.7835
1 30.3195 12.4845 0.0000
1 29.4278 11.5928 0.8918
1 31.2112 13.3763 0.8918
1 32.1030 10.7010 0.0000
1 32.1030 12.4845 1.7835
1 33.8865 10.7010 1.7835
1 33.8865 12.4845 0.0000
1 32.9948 11.5928 0.8918
1 34.7782 13.3763 0.8918
1 0.0000 14.2680 0.0000
1 0.0000 16.0515 1.7835
1 1.7835 14.2680 1.7835
1 1.7835 16.0515 0.0000
1 0.8918 15.1598 0.8918
1 2.6752 16.9432 0.8918
1 3.5670 14.2680 0.0000
1 3.5670 16.0515 1.7835
1 5.3505 14.2680 1.7835
1 5.3505 16.0515 0.0000
1 4.4588 15.1598 0.8918
1 6.2422 16.9432 0.8918
1 7.1340 14.2680 0.0000
1 7.1340 16.0515 1.7835
1 8.9175 14.2680 1.7835
1 8.9175 16.0515 0.0000
1 8.0258 15.1598 0.8918
1 9.8092 16.9432 0.8918
1 10.7010 14.2680 0.0000
1 10.7010 16.0515 1.7835
1 12.4845 14.2680 1.7835
1 12.4845 16.0515 0.0000
1 11.5928 15.1598 0.8918
1 13.3763 16.9432 0.8918
1 14.2680 14.2680 0.0000
1 14.2680 16.0515 1.7835
1 16.0515 14.2680 1.7835
1 16.0515 16.0515 0.0000
1 15.1598 15.1598 0.8918
1 16.9432 16.9432 0.8918
1 17.8350 14.2680 0.0000
1 17.8350 16.0515 1.7835
1 19.6185 14.2680 1.7835
1 19.6185 16.0515 0.0000
1 18.7268 15.1598 0.8918
1 20.5102 16.9432 0.8918
1 21.4020 14.2680 0.0000
1 21.4020 16.0515 1.7835
1 23.1855 14.2680 1.7835
1 23.1855 16.0515 0.0000
1 22.2938 15.1598 0.8918
1 24.0772 16.9432 0.8918
1 24.9690 14.2680 0.0000
1 24.9690 16.0515 1.7835
1 26.7525 14.2680 1.7835
1 26.7525 16.0515 0.0000
1 25.8608 15.1598 0.8918
1 27.6442 16.9432 0.8918
1 28.5360 14.2680 0.0000
1 28.5360 16.0515 1.7835
1 30.3195 14.2680 1.7835
1 30.3195 16.0515 0.0000
1 29.4278 15.1598 0.8918
1 31.2112 16.9432 0.8918
1 32.1030 14.2680 0.0000
1 32.1030 16.0515 1.7835
1 33.8865 14.2680 1.7835
1 33.8865 16.0515 0.0000
1 32.9948 15.1598 0.8918
1 34.7782 16.9432 0.8918
1 0.0000 17.8350 0.0000
1 0.0000 19.6185 1.7835
1 1.7835 17.8350 1.7835
1 1.7835 19.6185 0.0000
1 0.8918 18.7268 0.8918
1 2.6752 20.5102 0.8918
1 3.5670 17.8350 0.0000
1 3.5670 19.6185 1.7835
1 5.3505 17.8350 1.7835
1 5.3505 19.6185 0.0000
1 4.4588 18.7268 0.8918
1 6.2422 20.5102 0.8918
1 7.1340 17.8350 0.0000
1 7.1340 19.6185 1.7835
1 8.9175 17.8350 1.7835
1 8.9175 19.6185 0.0000
1 8.0258 18.7268 0.8918
1 9.8092 20.5102 0.8918
1 10.7010 17.8350 0.0000
1 10.7010 19.6185 1.7835
1 12.4845 17.8350 1.7835
1 12.4845 19.6185 0.0000
1 11.5928 18.7268 0.8918
1 13.3763 20.5102 0.8918
1 14.2680 17.8350 0.0000
1 14.2680 19.6185 1.7835
1 16.0515 17.8350 1.7835
1 16.0515 19.6185 0.0000
1 15.1598 18.7268 0.8918
1 16.9432 20.5102 0.8918
1 17.8350 17.8350 0.0000
1 17.8350 19.6185 1.7835
1 19.6185 17.8350 1.7835
1 19.6185 19.6185 0.0000
1 18.7268 18.7268 0.8918
1 20.5102 20.5102 0.8918
1 21.4020 17.8350 0.0000
1 21.4020 19.6185 1.7835
1 23.1855 17.8350 1.7835
1 23.1855 19.6185 0.0000
1 22.2938 18.7268 0.8918
1 24.0772 20.5102 0.8918
1 24.9690 17.8350 0.0000
1 24.9690 19.6185 1.7835
1 26.7525 17.8350 1.7835
1 26.7525 19.6185 0.0000
1 25.8608 18.7268 0.8918
1 27.6442 20.5102 0.8918
1 28.5360 17.8350 0.0000
1 28.5360 19.6185 1.7835
1 30.3195 17.8350 1.7835
1 30.3195 19.6185 0.0000
1 29.4278 18.7268 0.8918
1 31.2112 20.5102 0.8918
1 32.1030 17.8350 0.0000
1 32.1030 19.6185 1.7835
1 33.8865 17.8350 1.7835
1 33.8865 19.6185 0.0000
1 32.9948 18.7268 0.8918
1 34.7782 20.5102 0.8918
1 0.0000 21.4020 0.0000
1 0.0000 23.1855 1.7835
1 1.7835 21.4020 1.7835
1 1.7835 23.1855 0.0000
1 0.8918 22.2938 0.8918
1 2.6752 24.0772 0.8918
1 3.5670 21.4020 0.0000
1 3.5670 23.1855 1.7835
1 5.3505 21.4020 1.7835
1 5.3505 23.1855 0.0000
1 4.4588 22.2938 0.8918
1 6.2422 24.0772 0.8918
1 7.1340 21.4020 0.0000
1 7.1340 23.1855 1.7835
1 8.9175 21.4020 1.7835
1 8.9175 23.1855 0.0000
1 8.0258 22.2938 0.8918
1 9.8092 24.0772 0.8918
1 10.7010 21.4020 0.0000
1 10.7010 23.1855 1.7835
1 12.4845 21.4020 1.7835
1 12.4845 23.1855 0.0000
1 11.5928 22.2938 0.8918
1 13.3763 24.0772 0.8918
1 14.2680 21.4020 0.0000
1 14.2680 23.1855 1.7835
1 16.0515 21.4020 1.7835
1 16.0515 23.1855 0.0000
1 15.1598 22.2938 0.8918
1 16.9432 24.0772 0.8918
1 17.8350 21.4020 0.0000
1 17.8350 23.1855 1.7835
1 19.6185 21.4020 1.7835
1 19.6185 23.1855 0.0000
1 18.7268 22.2938 0.8918
1 20.5102 24.0772 0.8918
1 21.4020 21.4020 0.0000
1 21.4020 23.1855 1.7835
1 23.1855 21.4020 1.7835
1 23.1855 23.1855 0.0000
1 22.2938 22.2938 0.8918
1 24.0772 24.0772 0.8918
1 24.9690 21.4020 0.0000
1 24.9690 23.1855 1.7835
1 26.7525 21.4020 1.7835
1 26.7525 23.1855 0.0000
1 25.8608 22.2938 0.8918
1 27.6442 24.0772 0.8918
1 28.5360 21.4020 0.0000
1 28.5360 23.1855 1.7835
1 30.3195 21.4020 1.7835
1 30.3195 23.1855 0.0000
1 29.4278 22.2938 0.8918
1 31.2112 24.0772 0.8918
1 32.1030 21.4020 0.0000
1 32.1030 23.1855 1.7835
1 33.8865 21.4020 1.7835
1 33.8865 23.1855 0.0000
1 32.9948 22.2938 0.8918
1 34.7782 24.0772 0.8918
1 0.0000 24.9690 0.0000
1 0.0000 26.7525 1.7835
1 1.7835 24.9690 1.7835
1 1.7835 26.7525 0.0000
1 0.8918 25.8608 0.8918
1 2.6752 27.6442 0.8918
1 3.5670 24.9690 0.0000
1 3.5670 26.7525 1.7835
1 5.3505 24.9690 1.7835
1 5.3505 26.7525 0.0000
1 4.4588 25.8608 0.8918
1 6.2422 27.6442 0.8918
1 7.1340 24.9690 0.0000
1 7.1340 26.7525 1.7835
1 8.9175 24.9690 1.7835
1 8.9175 26.7525 0.0000
1 8.0258 25.8608 0.8918
1 9.8092 27.6442 0.8918
1 10.7010 24.9690 0.0000
1 10.7010 26.7525 1.7835
1 12.4845 24.9690 1.7835
1 12.4845 26.7525 0.0000
1 11.5928 25.8608 0.8918
1 13.3763 27.6442 0.8918
1 14.2680 24.9690 0.0000
1 14.2680 26.7525 1.7835
1 16.0515 24.9690 1.7835
1 16.0515 26.7525 0.0000
1 15.1598 25.8608 0.8918
1 16.9432 27.6442 0.8918
1 17.8350 24.9690 0.0000
1 17.8350 26.7525 1.7835
1 19.6185 24.9690 1.7835
1 19.6185 26.7525 0.0000
1 18.7268 25.8608 0.8918
1 20.5102 27.6442 0.8918
1 21.4020 24.9690 0.0000
1 21.4020 26.7525 1.7835
1 23.1855 24.9690 1.7835
1 23.1855 26.7525 0.0000
1 22.2938 25.8608 0.8918
1 24.0772 27.6442 0.8918
1 24.9690 24.9690 0.0000
1 24.9690 26.7525 1.7835
1 26.7525 24.9690 1.7835
1 26.7525 26.7525 0.0000
1 25.8608 25.8608 0.8918
1 27.6442 27.6442 0.8918
1 28.5360 24.9690 0.0000
1 28.5360 26.7525 1.7835
1 30.3195 24.9690 1.7835
1 30.3195 26.7525 0.0000
1 29.4278 25.8608 0.8918
1 31.2112 27.6442 0.8918
1 32.1030 24.9690 0.0000
1 32.1030 26.7525 1.7835
1 33.8865 24.9690 1.7835
1 33.8865 26.7525 0.0000
1 32.9948 25.8608 0.8918
1 34.7782 27.6442 0.8918
1 0.0000 28.5360 0.0000
1 0.0000 30.3195 1.7835
1 1.7835 28.5360 1.7835
1 1.7835 30.3195 0.0000
1 0.8918 29.4278 0.8918
1 2.6752 31.2112 0.8918
1 3.5670 28.5360 0.0000
1 3.5670 30.3195 1.7835
1 5.3505 28.5360 1.7835
1 5.3505 30.3195 0.0000
1 4.4588 29.4278 0.8918
1 6.2422 31.2112 0.8918
1 7.1340 28.5360 0.0000
1 7.1340 30.3195 1.7835
1 8.9175 28.5360 1.7835
1 8.9175 30.3195 0.0000
1 8.0258 29.4278 0.8918
1 9.8092 31.2112 0.8918
1 10.7010 28.5360 0.0000
1 10.7010 30.3195 1.7835
1 12.4845 28.5360 1.7835
1 12.4845 30.3195 0.0000
1 11.5928 29.4278 0.8918
1 13.3763 31.2112 0.8918
1 14.2680 28.5360 0.0000
1 14.2680 30.3195 1.7835
1 16.0515 28.5360 1.7835
1 16.0515 30.3195 0.0000
1 15.1598 29.4278 0.8918
1 16.9432 31.2112 0.8918
1 17.8350 28.5360 0.0000
1 17.8350 30.3195 1.7835
1 19.6185 28.5360 1.7835
1 19.6185 30.3195 0.0000
1 18.7268 29.4278 0.8918
1 20.5102 31.2112 0.8918
1 21.4020 28.5360 0.0000
1 21.4020 30.3195 1.7835
1 23.1855 28.5360 1.7835
1 23.1855 30.3195 0.0000
1 22.2938 29.4278 0.8918
1 24.0772 31.2112 0.8918
1 24.9690 28.5360 0.0000
1 24.9690 30.3195 1.7835
1 26.7525 28.5360 1.7835
1 26.7525 30.3195 0.0000
1 25.8608 29.4278 0.8918
1 27.6442 31.2112 0.8918
1 28.5360 28.5360 0.0000
1 28.5360 30.3195 1.7835
1 30.3195 28.5360 1.7835
1 30.3195 30.3195 0.0000
1 29.4278 29.4278 0.8918
1 31.2112 31.2112 0.8918
1 32.1030 28.5360 0.0000
1 32.1030 30.3195 1.7835
1 33.8865 28.5360 1.7835
1 33.8865 30.3195 0.0000
1 32.9948 29.4278 0.8918
1 34.7782 31.2112 0.8918
1 0.0000 32.1030 0.0000
1 0.0000 33.8865 1.7835
1 1.7835 32.1030 1.7835
1 1.7835 33.8865 0.0000
1 0.8918 32.9948 0.8918
1 2.6752 34.7782 0.8918
1 3.5670 32.1030 0.0000
1 3.5670 33.8865 1.7835
1 5.3505 32.1030 1.7835
1 5.3505 33.8865 0.0000
1 4.4588 32.9948 0.8918
1 6.2422 34.7782 0.8918
1 7.1340 32.1030 0.0000
1 7.1340 33.8865 1.7835
1 8.9175 32.1030 1.7835
1 8.9175 33.8865 0.0000
1 8.0258 32.9948 0.8918
1 9.8092 34.7782 0.8918
1 10.7010 32.1030 0.0000
1 10.7010 33.8865 1.7835
1 12.4845 32.1030 1.7835
1 12.4845 33.8865 0.0000
1 11.5928 32.9948 0.8918
1 13.3763 34.7782 0.8918
1 14.2680 32.1030 0.0000
1 14.2680 33.8865 1.7835
1 16.0515 32.1030 1.7835
1 16.0515 33.8865 0.0000
1 15.1598 32.9948 0.8918
1 16.9432 34.7782 0.8918
1 17.8350 32.1030 0.0000
1 17.8350 33.8865 1.7835
1 19.6185 32.1030 1.7835
1 19.6185 33.8865 0.0000
1 18.7268 32.9948 0.8918
1 20.5102 34.7782 0.8918
1 21.4020 32.1030 0.0000
1 21.4020 33.8865 1.7835
1 23.1855 32.1030 1.7835
1 23.1855 33.8865 0.0000
1 22.2938 32.9948 0.8918
1 24.0772 34.7782 0.8918
1 24.9690 32.1030 0.0000
1 24.9690 33.8865 1.7835
1 26.7525 32.1030 1.7835
1 26.7525 33.8865 0.0000
1 25.8608 32.9948 0.8918
1 27.6442 34.7782 0.8918
1 28.5360 32.1030 0.0000
1 28.5360 33.8865 1.7835
1 30.3195 32.1030 1.7835
1 30.3195 33.8865 0.0000
1 29.4278 32.9948 0.8918
1 31.2112 34.7782 0.8918
1 32.1030 32.1030 0.0000
1 32.1030 33.8865 1.7835
1 33.8865 32.1030 1.7835
1 33.8865 33.8865 0.0000
1 32.9948 32.9948 0.8918
1 34.7782 34.7782 0.8918
1 0.8918 2.6752 2.6752
1 2.6752 0.8918 2.6752
1 0.0000 0.0000 3.5670
1 0.0000 1.7835 5.3505
1 1.7835 0.0000 5.3505
1 1.7835 1.7835 3.5670
1 0.8918 0.8918 4.4588
1 2.6752 2.6752 4.4588
1 4.4588 2.6752 2.6752
1 6.2422 0.8918 2.6752
1 3.5670 0.0000 3.5670
1 3.5670 1.7835 5.3505
1 5.3505 0.0000 5.3505
1 5.3505 1.7835 3.5670
1 4.4588 0.8918 4.4588
1 6.2422 2.6752 4.4588
1 8.0258 2.6752 2.6752
1 9.8092 0.8918 2.6752
1 7.1340 0.0000 3.5670
1 7.1340 1.7835 5.3505
1 8.9175 0.0000 5.3505
1 8.9175 1.7835 3.5670
1 8.0258 0.8918 4.4588
1 9.8092 2.6752 4.4588
1 11.5928 2.6752 2.6752
1 13.3763 0.8918 2.6752
1 10.7010 0.0000 3.5670
1 10.7010 1.7835 5.3505
1 12.4845 0.0000 5.3505
1 12.4845 1.7835 3.5670
1 11.5928 0.8918 4.4588
1 13.3763 2.6752 4.4588
1 15.1598 2.6752 2.6752
1 16.9432 0.8918 2.6752
1 14.2680 0.0000 3.5670
1 14.2680 1.7835 5.3505
1 16.0515 0.0000 5.3505
1 16.0515 1.7835 3.5670
1 15.1598 0.8918 4.4588
1 16.9432 2.6752 4.4588
1 18.7268 2.6752 2.6752
1 20.5102 0.8918 2.6752
1 17.8350 0.0000 3.5670
1 17.8350 1.7835 5.3505
1 19.6185 0.0000 5.3505
1 19.6185 1.7835 3.5670
1 18.7268 0.8918 4.4588
1 20.5102 2.6752 4.4588
1 22.2938 2.6752 2.6752
1 24.0772 0.8918 2.6752
1 21.4020 0.0000 3.5670
1 21.4020 1.7835 5.3505
1 23.1855 0.0000 5.3505
1 23.1855 1.7835 3.5670
1 22.2938 0.8918 4.4588
1 24.0772 2.6752 4.4588
1 25.8608 2.6752 2.6752
1 27.6442 0.8918 2.6752
1 24.9690 0.0000 3.5670
1 24.9690 1.7835 5.3505
1 26.7525 0.0000 5.3505
1 26.7525 1.7835 3.5670
1 25.8608 0.8918 4.4588
1 27.6442 2.6752 4.4588
1 29.4278 2.6752 2.6752
1 31.2112 0.8918 2.6752
1 28.5360 0.0000 3.5670
1 28.5360 1.7835 5.3505
1 30.3195 0.0000 5.3505
1 30.3195 1.7835 3.5670
1 29.4278 0.8918 4.4588
1 31.2112 2.6752 4.4588
1 32.9948 2.6752 2.6752
1 34.7782 0.8918 2.6752
1 32.1030 0.0000 3.5670
1 32.1030 1.7835 5.3505
1 33.8865 0.0000 5.3505
1 33.8865 1.7835 3.5670
1 32.9948 0.8918 4.4588
1 34.7782 2.6752 4.4588
1 0.8918 6.2422 2.6752
1 2.6752 4.4588 2.6752
1 0.0000 3.5670 3.5670
1 0.0000 5.3505 5.3505
1 1.7835 3.5670 5.3505
1 1.7835 5.3505 3.5670
1 0.8918 4.4588 4.4588
1 2.6752 6.2422 4.4588
1 4.4588 6.2422 2.6752
1 6.2422 4.4588 2.6752
1 3.5670 3.5670 3.5670
1 3.5670 5.3505 5.3505
1 5.3505 3.5670 5.3505
1 5.3505 5.3505 3.5670
1 4.4588 4.4588 4.4588
1 6.2422 6.2422 4.4588
1 8.0258 6.2422 2.6752
1 9.8092 4.4588 2.6752
1 7.1340 3.5670 3.5670
1 7.1340 5.3505 5.3505
1 8.9175 3.5670 5.3505
1 8.9175 5.3505 3.5670
1 8.0258 4.4588 4.4588
1 9.8092 6.2422 4.4588
1 11.5928 6.2422 2.6752
1 13.3763 4.4588 2.6752
1 10.7010 3.5670 3.5670
1 10.7010 5.3505 5.3505
1 12.4845 3.5670 5.3505
1 12.4845 5.3505 3.5670
1 11.5928 4.4588 4.4588
1 13.3763 6.2422 4.4588
1 15.1598 6.2422 2.6752
1 16.9432 4.4588 2.6752
1 14.2680 3.5670 3.5670
1 14.2680 5.3505 5.3505
1 16.0515 3.5670 5.3505
1 16.0515 5.3505 3.5670
1 15.1598 4.4588 4.4588
1 16.9432 6.2422 4.4588
1 18.7268 6.2422 2.6752
1 20.5102 4.4588 2.6752
1 17.8350 3.5670 3.5670
1 17.8350 5.3505 5.3505
1 19.6185 3.5670 5.3505
1 19.6185 5.3505 3.5670
1 18.7268 4.4588 4.4588
1 20.5102 6.2422 4.4588
1 22.2938 6.2422 2.6752
1 24.0772 4.4588 2.6752
1 21.4020 3.5670 3.5670
1 21.4020 5.3505 5.3505
1 23.1855 3.5670 5.3505
1 23.1855 5.3505 3.5670
1 22.2938 4.4588 4.4588
1 24.0772 6.2422 4.4588
1 25.8608 6.2422 2.6752
1 27.6442 4.4588 2.6752
1 24.9690 3.5670 3.5670
1 24.9690 5.3505 5.3505
1 26.7525 3.5670 5.3505
1 26.7525 5.3505 3.5670
1 25.8608 4.4588 4.4588
1 27.6442 6.2422 4.4588
1 29.4278 6.2422 2.6752
1 31.2112 4.4588 2.6752
1 28.5360 3.5670 3.5670
1 28.5360 5.3505 5.3505
1 30.3195 3.5670 5.3505
1 30.3195 5.3505 3.5670
1 29.4278 4.4588 4.4588
1 31.2112 6.2422 4.4588
1 32.9948 6.2422 2.6752
1 34.7782 4.4588 2.6752
1 32.1030 3.5670 3.5670
1 32.1030 5.3505 5.3505
1 33.8865 3.5670 5.3505
1 33.8865 5.3505 3.5670
1 32.9948 4.4588 4.4588
1 34.7782 6.2422 4.4588
1 0.8918 9.8092 2.6752
1 2.6752 8.0258 2.6752
1 0.0000 7.1340 3.5670
1 0.0000 8.9175 5.3505
1 1.7835 7.1340 5.3505
1 1.7835 8.9175 3.5670
1 0.8918 8.0258 4.4588
1 2.6752 9.8092 4.4588
1 4.4588 9.8092 2.6752
1 6.2422 8.0258 2.6752
1 3.5670 7.1340 3.5670
1 3.5670 8.9175 5.3505
1 5.3505 7.1340 5.3505
1 5.3505 8.9175 3.5670
1 4.4588 8.0258 4.4588
1 6.2422 9.8092 4.4588
1 8.0258 9.8092 2.6752
1 9.8092 8.0258 2.6752
1 7.1340 7.1340 3.5670
1 7.1340 8.9175 5.3505
1 8.9175 7.1340 5.3505
1 8.9175 8.9175 3.5670
1 8.0258 8.0258 4.4588
1 9.8092 9.8092 4.4588
1 11.5928 9.8092 2.6752
1 13.3763 8.0258 2.6752
1 10.7010 7.1340 3.5670
1 10.7010 8.9175 5.3505
1 12.4845 7.1340 5.3505
1 12.4845 8.9175 3.5670
1 11.5928 8.0258 4.4588
1 13.3763 9.8092 4.4588
1 15.1598 9.8092 2.6752
1 16.9432 8.0258 2.6752
1 14.2680 7.1340 3.5670
1 14.2680 8.9175 5.3505
1 16.0515 7.1340 5.3505
1 16.0515 8.9175 3.5670
1 15.1598 8.0258 4.4588
1 16.9432 9.8092 4.4588
1 18.7268 9.8092 2.6752
1 20.5102 8.0258 2.6752
1 17.8350 7.1340 3.5670
1 17.8350 8.9175 5.3505
1 19.6185 7.1340 5.3505
1 19.6185 8.9175 3.5670
1 18.7268 8.0258 4.4588
1 20.5102 9.8092 4.4588
1 22.2938 9.8092 2.6752
1 24.0772 8.0258 2.6752
1 21.4020 7.1340 3.5670
1 21.4020 8.9175 5.3505
1 23.1855 7.1340 5.3505
1 23.1855 8.9175 3.5670
1 22.2938 8.0258 4.4588
1 24.0772 9.8092 4.4588
1 25.8608 9.8092 2.6752
1 27.6442 8.0258 2.6752
1 24.9690 7.1340 3.5670
1 24.9690 8.9175 5.3505
1 26.7525 7.1340 5.3505
1 26.7525 8.9175 3.5670
1 25.8608 8.0258 4.4588
1 27.6442 9.8092 4.4588
1 29.4278 9.8092 2.6752
1 31.2112 8.0258 2.6752
1 28.5360 7.1340 3.5670
1 28.5360 8.9175 5.3505
1 30.3195 7.1340 5.3505
1 30.3195 8.9175 3.5670
1 29.4278 8.0258 4.4588
1 31.2112 9.8092 4.4588
1 32.9948 9.8092 2.6752
1 34.7782 8.0258 2.6752
1 32.1030 7.1340 3.5670
1 32.1030 8.9175 5.3505
1 33.8865 7.1340 5.3505
1 33.8865 8.9175 3.5670
1 32.9948 8.0258 4.4588
1 34.7782 9.8092 4.4588
1 0.8918 13.3763 2.6752
1 2.6752 11.5928 2.6752
1 0.0000 10.7010 3.5670
1 0.0000 12.4845 5.3505
1 1.7835 10.7010 5.3505
1 1.7835 12.4845 3.5670
1 0.8918 11.5928 4.4588
1 2.6752 13.3763 4.4588
1 4.4588 13.3763 2.6752
1 6.2422 11.5928 2.6752
1 3.5670 10.7010 3.5670
1 3.5670 12.4845 5.3505
1 5.3505 10.7010 5.3505
1 5.3505 12.4845 3.5670
1 4.4588 11.5928 4.4588
1 6.2422 13.3763 4.4588
1 8.0258 13.3763 2.6752
1 9.8092 11.5928 2.6752
1 7.1340 10.7010 3.5670
1 7.1340 12.4845 5.3505
1 8.9175 10.7010 5.3505
1 8.9175 12.4845 3.5670
1 8.0258 11.5928 4.4588
1 9.8092 13.3763 4.4588
1 11.5928 13.3763 2.6752
1 13.3763 11.5928 2.6752
1 10.7010 10.7010 3.5670
1 10.7010 12.4845 5.3505
1 12.4845 10.7010 5.3505
1 12.4845 12.4845 3.5670
1 11.5928 11.5928 4.4588
1 13.3763 13.3763 4.4588
1 15.1598 13.3763 2.6752
1 16.9432 11.5928 2.6752
1 14.2680 10.7010 3.5670
1 14.2680 12.4845 5.3505
1 16.0515 10.7010 5.3505
1 16.0515 12.4845 3.5670
1 15.1598 11.5928 4.4588
1 16.9432 13.3763 4.4588
1 18.7268 13.3763 2.6752
1 20.5102 11.5928 2.6752
1 17.8350 10.7010 3.5670
1 17.8350 12.4845 5.3505
1 19.6185 10.7010 5.3505
1 19.6185 12.4845 3.5670
1 18.7268 11.5928 4.4588
1 20.5102 13.3763 4.4588
1 22.2938 13.3763 2.6752
1 24.0772 11.5928 2.6752
1 21.4020 10.7010 3.5670
1 21.4020 12.4845 5.3505
1 23.1855 10.7010 5.3505
1 23.1855 12.4845 3.5670
1 22.2938 11.5928 4.4588
1 24.0772 13.3763 4.4588
1 25.8608 13.3763 2.6752
1 27.6442 11.5928 2.6752
1 24.9690 10.7010 3.5670
1 24.9690 12.4845 5.3505
1 26.7525 10.7010 5.3505
1 26.7525 12.4845 3.5670
1 25.8608 11.5928 4.4588
1 27.6442 13.3763 4.4588
1 29.4278 13.3763 2.6752
1 31.2112 11.5928 2.6752
1 28.5360 10.7010 3.5670
1 28.5360 12.4845 5.3505
1 30.3195 10.7010 5.3505
1 30.3195 12.4845 3.5670
1 29.4278 11.5928 4.4588
1 31.2112 13.3763 4.4588
1 32.9948 13.3763 2.6752
1 34.7782 11.5928 2.6752
1 32.1030 10.7010 3.5670
1 32.1030 12.4845 5.3505
1 33.8865 10.7010 5.3505
1 33.8865 12.4845 3.5670
1 32.9948 11.5928 4.4588
1 34.7782 13.3763 4.4588
1 0.8918 16.9432 2.6752
1 2.6752 15.1598 2.6752
1 0.0000 14.2680 3.5670
1 0.0000 16.0515 5.3505
1 1.7835 14.2680 5.3505
1 1.7835 16.0515 3.5670
1 0.8918 15.1598 4.4588
1 2.6752 16.9432 4.4588
1 4.4588 16.9432 2.6752
1 6.2422 15.1598 2.6752
1 3.5670 14.2680 3.5670
1 3.5670 16.0515 5.3505
1 5.3505 14.2680 5.3505
1 5.3505 16.0515 3.5670
1 4.4588 15.1598 4.4588
1 6.2422 16.9432 4.4588
1 8.0258 16.9432 2.6752
1 9.8092 15.1598 2.6752
1 7.1340 14.2680 3.5670
1 7.1340 16.0515 5.3505
1 8.9175 14.2680 5.3505
1 8.9175 16.0515 3.5670
1 8.0258 15.1598 4.4588
1 9.8092 16.9432 4.4588
1 11.5928 16.9432 2.6752
1 13.3763 15.1598 2.6752
1 10.7010 14.2680 3.5670
1 10.7010 16.0515 5.3505
1 12.4845 14.2680 5.3505
1 12.4845 16.0515 3.5670
1 11.5928 15.1598 4.4588
1 13.3763 16.9432 4.4588
1 15.1598 16.9432 2.6752
1 16.9432 15.1598 2.6752
1 14.2680 14.2680 3.5670
1 14.2680 16.0515 5.3505
1 16.0515 14.2680 5.3505
1 16.0515 16.0515 3.5670
1 15.1598 15.1598 4.4588
1 16.9432 16.9432 4.4588
1 18.7268 16.9432 2.6752
1 20.5102 15.1598 2.6752
1 17.8350 14.2680 3.5670
1 17.8350 16.0515 5.3505
1 19.6185 14.2680 5.3505
1 19.6185 16.0515 3.5670
1 18.7268 15.1598 4.4588
1 20.5102 16.9432 4.4588
1 22.2938 16.9432 2.6752
1 24.0772 15.1598 2.6752
1 21.4020 14.2680 3.5670
1 21.4020 16.0515 5.3505
1 23.1855 14.2680 5.3505
1 23.1855 16.0515 3.5670
1 22.2938 15.1598 4.4588
1 24.0772 16.9432 4.4588
1 25.8608 16.9432 2.6752
1 27.6442 15.1598 2.6752
1 24.9690 14.2680 3.5670
1 24.9690 16.0515 5.3505
1 26.7525 14.2680 5.3505
1 26.7525 16.0515 3.5670
1 25.8608 15.1598 4.4588
1 27.6442 16.9432 4.4588
1 29.4278 16.9432 2.6752
1 31.2112 15.1598 2.6752
1 28.5360 14.2680 3.5670
1 28.5360 16.0515 5.3505
1 30.3195 14.2680 5.3505
1 30.3195 16.0515 3.5670
1 29.4278 15.1598 4.4588
1 31.2112 16.9432 4.4588
1 32.9948 16.9432 2.6752
1 34.7782 15.1598 2.6752
1 32.1030 14.2680 3.5670
1 32.1030 16.0515 5.3505
1 33.8865 14.2680 5.3505
1 33.8865 16.0515 3.5670
1 32.9948 15.1598 4.4588
1 34.7782 16.9432 4.4588
1 0.8918 20.5102 2.6752
1 2.6752 18.7268 2.6752
1 0.0000 17.8350 3.5670
1 0.0000 19.6185 5.3505
1 1.7835 17.8350 5.3505
1 1.7835 19.6185 3.5670
1 0.8918 18.7268 4.4588
1 2.6752 20.5102 4.4588
1 4.4588 20.5102 2.6752
1 6.2422 18.7268 2.6752
1 3.5670 17.8350 3.5670
1 3.5670 19.6185 5.3505
1 5.3505 17.8350 5.3505
1 5.3505 19.6185 3.5670
1 4.4588 18.7268 4.4588
1 6.2422 20.5102 4.4588
1 8.0258 20.5102 2.6752
1 9.8092 18.7268 2.6752
1 7.1340 17.8350 3.5670
1 7.1340 19.6185 5.3505
1 8.9175 17.8350 5.3505
1 8.9175 19.6185 3.5670
1 8.0258 18.7268 4.4588
1 9.8092 20.5102 4.4588
1 11.5928 20.5102 2.6752
1 13.3763 18.7268 2.6752
1 10.7010 17.8350 3.5670
1 10.7010 19.6185 5.3505
1 12.4845 17.8350 5.3505
1 12.4845 19.6185 3.5670
1 11.5928 18.7268 4.4588
1 13.3763 20.5102 4.4588
1 15.1598 20.5102 2.6752
1 16.9432 18.7268 2.6752
1 14.2680 17.8350 3.5670
1 14.2680 19.6185 5.3505
1 16.0515 17.8350 5.3505
1 16.0515 19.6185 3.5670
1 15.1598 18.7268 4.4588
1 16.9432 20.5102 4.4588
1 18.7268 20.5102 2.6752
1 20.5102 18.7268 2.6752
1 17.8350 17.8350 3.5670
1 17.8350 19.6185 5.3505
1 19.6185 17.8350 5.3505
1 19.6185 19.6185 3.5670
1 18.7268 18.7268 4.4588
1 20.5102 20.5102 4.4588
1 22.2938 20.5102 2.6752
1 24.0772 18.7268 2.6752
1 21.4020 17.8350 3.5670
1 21.4020 19.6185 5.3505
1 23.1855 17.8350 5.3505
1 23.1855 19.6185 3.5670
1 22.2938 18.7268 4.4588
1 24.0772 20.5102 4.4588
1 25.8608 20.5102 2.6752
1 27.6442 18.7268 2.6752
1 24.9690 17.8350 3.5670
1 24.9690 19.6185 5.3505
1 26.7525 17.8350 5.3505
1 26.7525 19.6185 3.5670
1 25.8608 18.7268 4.4588
1 27.6442 20.5102 4.4588
1 29.4278 20.5102 2.6752
1 31.2112 18.7268 2.6752
1 28.5360 17.8350 3.5670
1 28.5360 19.6185 5.3505
1 30.3195 17.8350 5.3505
1 30.3195 19.6185 3.5670
1 29.4278 18.7268 4.4588
1 31.2112 20.5102 4.4588
1 32.9948 20.5102 2.6752
1 34.7782 18.7268 2.6752
1 32.1030 17.8350 3.5670
1 32.1030 19.6185 5.3505
1 33.8865 17.8350 5.3505
1 33.8865 19.6185 3.5670
1 32.9948 18.7268 4.4588
1 34.7782 20.5102 4.4588
1 0.8918 24.0772 2.6752
1 2.6752 22.2938 2.6752
1 0.0000 21.4020 3.5670
1 0.0000 23.1855 5.3505
1 1.7835 21.4020 5.3505
1 1.7835 23.1855 3.5670
1 0.8918 22.2938 4.4588
1 2.6752 24.0772 4.4588
1 4.4588 24.0772 2.6752
1 6.2422 22.2938 2.6752
1 3.5670 21.4020 3.5670
1 3.5670 23.1855 5.3505
1 5.3505 21.4020 5.3505
1 5.3505 23.1855 3.5670
1 4.4588 22.2938 4.4588
1 6.2422 24.0772 4.4588
1 8.0258 24.0772 2.6752
1 9.8092 22.2938 2.6752
1 7.1340 21.4020 3.5670
1 7.1340 23.1855 5.3505
1 8.9175 21.4020 5.3505
1 8.9175 23.1855 3.5670
1 8.0258 22.2938 4.4588
1 9.8092 24.0772 4.4588
1 11.5928 24.0772 2.6752
1 13.3763 22.2938 2.6752
1 10.7010 21.4020 3.5670
1 10.7010 23.1855 5.3505
1 12.4845 21.4020 5.3505
1 12.4845 23.1855 3.5670
1 11.5928 22.2938 4.4588
1 13.3763 24.0772 4.4588
1 15.1598 24.0772 2.6752
1 16.9432 22.2938 2.6752
1 14.2680 21.4020 3.5670
1 14.2680 23.1855 5.3505
1 16.0515 21.4020 5.3505
1 16.0515 23.1855 3.5670
1 15.1598 22.2938 4.4588
1 16.9432 24.0772 4.4588
1 18.7268 24.0772 2.6752
1 20.5102 22.2938 2.6752
1 17.8350 21.4020 3.5670
1 17.8350 23.1855 5.3505
1 19.6185 21.4020 5.3505
1 19.6185 23.1855 3.5670
1 18.7268 22.2938 4.4588
1 20.5102 24.0772 4.4588
1 22.2938 24.0772 2.6752
1 24.0772 22.2938 2.6752
1 21.4020 21.4020 3.5670
1 21.4020 23.1855 5.3505
1 23.1855 21.4020 5.3505
1 23.1855 23.1855 3.5670
1 22.2938 22.2938 4.4588
1 24.0772 24.0772 4.4588
1 25.8608 24.0772 2.6752
1 27.6442 22.2938 2.6752
1 24.9690 21.4020 3.5670
1 24.9690 23.1855 5.3505
1 26.7525 21.4020 5.3505
1 26.7525 23.1855 3.5670
1 25.8608 22.2938 4.4588
1 27.6442 24.0772 4.4588
1 29.4278 24.0772 2.6752
1 31.2112 22.2938 2.6752
1 28.5360 21.4020 3.5670
1 28.5360 23.1855 5.3505
1 30.3195 21.4020 5.3505
1 30.3195 23.1855 3.5670
1 29.4278 22.2938 4.4588
1 31.2112 24.0772 4.4588
1 32.9948 24.0772 2.6752
1 34.7782 22.2938 2.6752
1 32.1030 21.4020 3.5670
1 32.1030 23.1855 5.3505
1 33.8865 21.4020 5.3505
1 33.8865 23.1855 3.5670
1 32.9948 22.2938 4.4588
1 34.7782 24.0772 4.4588
1 0.8918 27.6442 2.6752
1 2.6752 25.8608 2.6752
1 0.0000 24.9690 3.5670
1 0.0000 26.7525 5.3505
1 1.7835 24.9690 5.3505
1 1.7835 26.7525 3.5670
1 0.8918 25.8608 4.4588
1 2.6752 27.6442 4.4588
1 4.4588 27.6442 2.6752
1 6.2422 25.8608 2.6752
1 3.5670 24.9690 3.5670
1 3.5670 26.7525 5.3505
1 5.3505 24.9690 5.3505
1 5.3505 26.7525 3.5670
1 4.4588 25.8608 4.4588
1 6.2422 27.6442 4.4588
1 8.0258 27.6442 2.6752
1 9.8092 25.8608 2.6752
1 7.1340 24.9690 3.5670
1 7.1340 26.7525 5.3505
1 8.9175 24.9690 5.3505
1 8.9175 26.7525 3.5670
1 8.0258 25.8608 4.4588
1 9.8092 27.6442 4.4588
1 11.5928 27.6442 2.6752
1 13.3763 25.8608 2.6752
1 10.7010 24.9690 3.5670
1 10.7010 26.7525 5.3505
1 12.4845 24.9690 5.3505
1 12.4845 26.7525 3.5670
1 11.5928 25.8608 4.4588
1 13.3763 27.6442 4.4588
1 15.1598 27.6442 2.6752
1 16.9432 25.8608 2.6752
1 14.2680 24.9690 3.5670
1 14.2680 26.7525 5.3505
1 16.0515 24.9690 5.3505
1 16.0515 26.7525 3.5670
1 15.1598 25.8608 4.4588
1 16.9432 27.6442 4.4588
1 18.7268 27.6442 2.6752
1 20.5102 25.8608 2.6752
1 17.8350 24.9690 3.5670
1 17.8350 26.7525 5.3505
1 19.6185 24.9690 5.3505
1 19.6185 26.7525 3.5670
1 18.7268 25.8608 4.4588
1 20.5102 27.6442 4.4588
1 22.2938 27.6442 2.6752
1 24.0772 25.8608 2.6752
1 21.4020 24.9690 3.5670
1 21.4020 26.7525 5.3505
1 23.1855 24.9690 5.3505
1 23.1855 26.7525 3.5670
1 22.2938 25.8608 4.4588
1 24.0772 27.6442 4.4588
1 25.8608 27.6442 2.6752
1 27.6442 25.8608 2.6752
1 24.9690 24.9690 3.5670
1 24.9690 26.7525 5.3505
1 26.7525 24.9690 5.3505
1 26.7525 26.7525 3.5670
1 25.8608 25.8608 4.4588
1 27.6442 27.6442 4.4588
1 29.4278 27.6442 2.6752
1 31.2112 25.8608 2.6752
1 28.5360 24.9690 3.5670
1 28.5360 26.7525 5.3505
1 30.3195 24.9690 5.3505
1 30.3195 26.7525 3.5670