1000
Atoms. Timestep. 0.0
1 0.0000 0.0000 0.0000
1 0.0000 1.7835 1.7835
1 1.7835 0.0000 1.7835
1 1.7835 1.7835 0.0000
1 0.8918 0.8918 0.8918
1 2.6752 2.6752 0.8918
1 3.5670 0.0000 0.0000
1 3.5670 1.7835 1.7835
1 5.3505 0.0000 1.7835
1 5.3505 1.7835 0.0000
1 4.4588 0.8918 0.8918
1 6.2422 2.6752 0.8918
1 7.1340 0.0000 0.0000
1 7.1340 1.7835 1.7835
1 8.9175 0.0000 1.7835
1 8.9175 1.7835 0.0000
1 8.0258 0.8918 0.8918
1 9.8092 2.6752 0.8918
1 10.7010 0.0000 0.0000
1 10.7010 1.7835 1.7835
1 12.4845 0.0000 1.7835
1 12.4845 1.7835 0.0000
1 11.5928 0.8918 0.8918
1 13.3763 2.6752 0.8918
1 14.2680 0.0000 0.0000
1 14.2680 1.7835 1.7835
1 16.0515 0.0000 1.7835
1 16.0515 1.7835 0.0000
1 15.1598 0.8918 0.8918
1 16.9432 2.6752 0.8918
1 0.0000 3.5670 0.0000
1 0.0000 5.3505 1.7835
1 1.7835 3.5670 1.7835
1 1.7835 5.3505 0.0000
1 0.8918 4.4588 0.8918
1 2.6752 6.2422 0.8918
1 3.5670 3.5670 0.0000
1 3.5670 5.3505 1.7835
1 5.3505 3.5670 1.7835
1 5.3505 5.3505 0.0000
1 4.4588 4.4588 0.8918
1 6.2422 6.2422 0.8918
1 7.1340 3.5670 0.0000
1 7.1340 5.3505 1.7835
1 8.9175 3.5670 1.7835
1 8.9175 5.3505 0.0000
1 8.0258 4.4588 0.8918
1 9.8092 6.2422 0.8918
1 10.7010 3.5670 0.0000
1 10.7010 5.3505 1.7835
1 12.4845 3.5670 1.7835
1 12.4845 5.3505 0.0000
1 11.5928 4.4588 0.8918
1 13.3763 6.2422 0.8918
1 14.2680 3.5670 0.0000
1 14.2680 5.3505 1.7835
1 16.0515 3.5670 1.7835
1 16.0515 5.3505 0.0000
1 15.1598 4.4588 0.8918
1 16.9432 6.2422 0.8918
1 0.0000 7.1340 0.0000
1 0.0000 8.9175 1.7835
1 1.7835 7.1340 1.7835
1 1.7835 8.9175 0.0000
1 0.8918 8.0258 0.8918
1 2.6752 9.8092 0.8918
1 3.5670 7.1340 0.0000
1 3.5670 8.9175 1.7835
1 5.3505 7.1340 1.7835
1 5.3505 8.9175 0.0000
1 4.4588 8.0258 0.8918
1 6.2422 9.8092 0.8918
1 7.1340 7.1340 0.0000
1 7.1340 8.9175 1.7835
1 8.9175 7.1340 1.7835
1 8.9175 8.9175 0.0000
1 8.0258 8.0258 0.8918
1 9.8092 9.8092 0.8918
1 10.7010 7.1340 0.0000
1 10.7010 8.9175 1.7835
1 12.4845 7.1340 1.7835
1 12.4845 8.9175 0.0000
1 11.5928 8.0258 0.8918
1 13.3763 9.8092 0.8918
1 14.2680 7.1340 0.0000
1 14.2680 8.9175 1.7835
1 16.0515 7.1340 1.7835
1 16.0515 8.9175 0.0000
1 15.1598 8.0258 0.8918
1 16.9432 9.8092 0.8918
1 0.0000 10.7010 0.0000
1 0.0000 12.4845 1.7835
1 1.7835 10.7010 1.7835
1 1.7835 12.4845 0.0000
1 0.8918 11.5928 0.8918
1 2.6752 13.3763 0.8918
1 3.5670 10.7010 0.0000
1 3.5670 12.4845 1.7835
1 5.3505 10.7010 1.7835
1 5.3505 12.4845 0.0000
1 4.4588 11.5928 0.8918
1 6.2422 13.3763 0.8918
1 7.1340 10.7010 0.0000
1 7.1340 12.4845 1.7835
1 8.9175 10.7010 1.7835
1 8.9175 12.4845 0.0000
1 8.0258 11.5928 0.8918
1 9.8092 13.3763 0.8918
1 10.7010 10.7010 0.0000
1 10.7010 12.4845 1.7835
1 12.4845 10.7010 1.7835
1 12.4845 12.4845 0.0000
1 11.5928 11.5928 0.8918
1 13.3763 13.3763 0.8918
1 14.2680 10.7010 0.0000
1 14.2680 12.4845 1.7835
1 16.0515 10.7010 1.7835
1 16.0515 12.4845 0.0000
1 15.1598 11.5928 0.8918
1 16.9432 13.3763 0.8918
1 0.0000 14.2680 0.0000
1 0.0000 16.0515 1.7835
1 1.7835 14.2680 1.7835
1 1.7835 16.0515 0.0000
1 0.8918 15.1598 0.8918
1 2.6752 16.9432 0.8918
1 3.5670 14.2680 0.0000
1 3.5670 16.0515 1.7835
1 5.3505 14.2680 1.7835
1 5.3505 16.0515 0.0000
1 4.4588 15.1598 0.8918
1 6.2422 16.9432 0.8918
1 7.1340 14.2680 0.0000
1 7.1340 16.0515 1.7835
1 8.9175 14.2680 1.7835
1 8.9175 16.0515 0.0000
1 8.0258 15.1598 0.8918
1 9.8092 16.9432 0.8918
1 10.7010 14.2680 0.0000
1 10.7010 16.0515 1.7835
1 12.4845 14.2680 1.7835
1 12.4845 16.0515 0.0000
1 11.5928 15.1598 0.8918
1 13.3763 16.9432 0.8918
1 14.2680 14.2680 0.0000
1 14.2680 16.0515 1.7835
1 16.0515 14.2680 1.7835
1 16.0515 16.0515 0.0000
1 15.1598 15.1598 0.8918
1 16.9432 16.9432 0.8918
1 0.8918 2.6752 2.6752
1 2.6752 0.8918 2.6752
1 0.0000 0.0000 3.5670
1 0.0000 1.7835 5.3505
1 1.7835 0.0000 5.3505
1 1.7835 1.7835 3.5670
1 0.8918 0.8918 4.4588
1 2.6752 2.6752 4.4588
1 4.4588 2.6752 2.6752
1 6.2422 0.8918 2.6752
1 3.5670 0.0000 3.5670
1 3.5670 1.7835 5.3505
1 5.3505 0.0000 5.3505
1 5.3505 1.7835 3.5670
1 4.4588 0.8918 4.4588
1 6.2422 2.6752 4.4588
1 8.0258 2.6752 2.6752
1 9.8092 0.8918 2.6752
1 7.1340 0.0000 3.5670
1 7.1340 1.7835 5.3505
1 8.9175 0.0000 5.3505
1 8.9175 1.7835 3.5670
1 8.0258 0.8918 4.4588
1 9.8092 2.6752 4.4588
1 11.5928 2.6752 2.6752
1 13.3763 0.8918 2.6752
1 10.7010 0.0000 3.5670
1 10.7010 1.7835 5.3505
1 12.4845 0.0000 5.3505
1 12.4845 1.7835 3.5670
1 11.5928 0.8918 4.4588
1 13.3763 2.6752 4.4588
1 15.1598 2.6752 2.6752
1 16.9432 0.8918 2.6752
1 14.2680 0.0000 3.5670
1 14.2680 1.7835 5.3505
1 16.0515 0.0000 5.3505
1 16.0515 1.7835 3.5670
1 15.1598 0.8918 4.4588
1 16.9432 2.6752 4.4588
1 0.8918 6.2422 2.6752
1 2.6752 4.4588 2.6752
1 0.0000 3.5670 3.5670
1 0.0000 5.3505 5.3505
1 1.7835 3.5670 5.3505
1 1.7835 5.3505 3.5670
1 0.8918 4.4588 4.4588
1 2.6752 6.2422 4.4588
1 4.4588 6.2422 2.6752
1 6.2422 4.4588 2.6752
1 3.5670 3.5670 3.5670
1 3.5670 5.3505 5.3505
1 5.3505 3.5670 5.3505
1 5.3505 5.3505 3.5670
1 4.4588 4.4588 4.4588
1 6.2422 6.2422 4.4588
1 8.0258 6.2422 2.6752
1 9.8092 4.4588 2.6752
1 7.1340 3.5670 3.5670
1 7.1340 5.3505 5.3505
1 8.9175 3.5670 5.3505
1 8.9175 5.3505 3.5670
1 8.0258 4.4588 4.4588
1 9.8092 6.2422 4.4588
1 11.5928 6.2422 2.6752
1 13.3763 4.4588 2.6752
1 10.7010 3.5670 3.5670
1 10.7010 5.3505 5.3505
1 12.4845 3.5670 5.3505
1 12.4845 5.3505 3.5670
1 11.5928 4.4588 4.4588
1 13.3763 6.2422 4.4588
1 15.1598 6.2422 2.6752
1 16.9432 4.4588 2.6752
1 14.2680 3.5670 3.5670
1 14.2680 5.3505 5.3505
1 16.0515 3.5670 5.3505
1 16.0515 5.3505 3.5670
1 15.1598 4.4588 4.4588
1 16.9432 6.2422 4.4588
1 0.8918 9.8092 2.6752
1 2.6752 8.0258 2.6752
1 0.0000 7.1340 3.5670
1 0.0000 8.9175 5.3505
1 1.7835 7.1340 5.3505
1 1.7835 8.9175 3.5670
1 0.8918 8.0258 4.4588
1 2.6752 9.8092 4.4588
1 4.4588 9.8092 2.6752
1 6.2422 8.0258 2.6752
1 3.5670 7.1340 3.5670
1 3.5670 8.9175 5.3505
1 5.3505 7.1340 5.3505
1 5.3505 8.9175 3.5670
1 4.4588 8.0258 4.4588
1 6.2422 9.8092 4.4588
1 8.0258 9.8092 2.6752
1 9.8092 8.0258 2.6752
1 7.1340 7.1340 3.5670
1 7.1340 8.9175 5.3505
1 8.9175 7.1340 5.3505
1 8.9175 8.9175 3.5670
1 8.0258 8.0258 4.4588
1 9.8092 9.8092 4.4588
1 11.5928 9.8092 2.6752
1 13.3763 8.0258 2.6752
1 10.7010 7.1340 3.5670
1 10.7010 8.9175 5.3505
1 12.4845 7.1340 5.3505
1 12.4845 8.9175 3.5670
1 11.5928 8.0258 4.4588
1 13.3763 9.8092 4.4588
1 15.1598 9.8092 2.6752
1 16.9432 8.0258 2.6752
1 14.2680 7.1340 3.5670
1 14.2680 8.9175 5.3505
1 16.0515 7.1340 5.3505
1 16.0515 8.9175 3.5670
1 15.1598 8.0258 4.4588
1 16.9432 9.8092 4.4588
1 0.8918 13.3763 2.6752
1 2.6752 11.5928 2.6752
1 0.0000 10.7010 3.5670
1 0.0000 12.4845 5.3505
1 1.7835 10.7010 5.3505
1 1.7835 12.4845 3.5670
1 0.8918 11.5928 4.4588
1 2.6752 13.3763 4.4588
1 4.4588 13.3763 2.6752
1 6.2422 11.5928 2.6752
1 3.5670 10.7010 3.5670
1 3.5670 12.4845 5.3505
1 5.3505 10.7010 5.3505
1 5.3505 12.4845 3.5670
1 4.4588 11.5928 4.4588
1 6.2422 13.3763 4.4588
1 8.0258 13.3763 2.6752
1 9.8092 11.5928 2.6752
1 7.1340 10.7010 3.5670
1 7.1340 12.4845 5.3505
1 8.9175 10.7010 5.3505
1 8.9175 12.4845 3.5670
1 8.0258 11.5928 4.4588
1 9.8092 13.3763 4.4588
1 11.5928 13.3763 2.6752
1 13.3763 11.5928 2.6752
1 10.7010 10.7010 3.5670
1 10.7010 12.4845 5.3505
1 12.4845 10.7010 5.3505
1 12.4845 12.4845 3.5670
1 11.5928 11.5928 4.4588
1 13.3763 13.3763 4.4588
1 15.1598 13.3763 2.6752
1 16.9432 11.5928 2.6752
1 14.2680 10.7010 3.5670
1 14.2680 12.4845 5.3505
1 16.0515 10.7010 5.3505
1 16.0515 12.4845 3.5670
1 15.1598 11.5928 4.4588
1 16.9432 13.3763 4.4588
1 0.8918 16.9432 2.6752
1 2.6752 15.1598 2.6752
1 0.0000 14.2680 3.5670
1 0.0000 16.0515 5.3505
1 1.7835 14.2680 5.3505
1 1.7835 16.0515 3.5670
1 0.8918 15.1598 4.4588
1 2.6752 16.9432 4.4588
1 4.4588 16.9432 2.6752
1 6.2422 15.1598 2.6752
1 3.5670 14.2680 3.5670
1 3.5670 16.0515 5.3505
1 5.3505 14.2680 5.3505
1 5.3505 16.0515 3.5670
1 4.4588 15.1598 4.4588
1 6.2422 16.9432 4.4588
1 8.0258 16.9432 2.6752
1 9.8092 15.1598 2.6752
1 7.1340 14.2680 3.5670
1 7.1340 16.0515 5.3505
1 8.9175 14.2680 5.3505
1 8.9175 16.0515 3.5670
1 8.0258 15.1598 4.4588
1 9.8092 16.9432 4.4588
1 11.5928 16.9432 2.6752
1 13.3763 15.1598 2.6752
1 10.7010 14.2680 3.5670
1 10.7010 16.0515 5.3505
1 12.4845 14.2680 5.3505
1 12.4845 16.0515 3.5670
1 11.5928 15.1598 4.4588
1 13.3763 16.9432 4.4588
1 15.1598 16.9432 2.6752
1 16.9432 15.1598 2.6752
1 14.2680 14.2680 3.5670
1 14.2680 16.0515 5.3505
1 16.0515 14.2680 5.3505
1 16.0515 16.0515 3.5670
1 15.1598 15.1598 4.4588
1 16.9432 16.9432 4.4588
1 0.8918 2.6752 6.2422
1 2.6752 0.8918 6.2422
1 0.0000 0.0000 7.1340
1 1.7835 1.7835 7.1340
1 0.8918 0.8918 8.0258
1 2.6752 2.6752 8.0258
1 4.4588 2.6752 6.2422
1 6.2422 0.8918 6.2422
1 3.5670 0.0000 7.1340
1 5.3505 1.7835 7.1340
1 4.4588 0.8918 8.0258
1 6.2422 2.6752 8.0258
1 8.0258 2.6752 6.2422
1 9.8092 0.8918 6.2422
1 7.1340 0.0000 7.1340
1 8.9175 1.7835 7.1340
1 8.0258 0.8918 8.0258
1 9.8092 2.6752 8.0258
1 11.5928 2.6752 6.2422
1 13.3763 0.8918 6.2422
1 10.7010 0.0000 7.1340
1 12.4845 1.7835 7.1340
1 11.5928 0.8918 8.0258
1 13.3763 2.6752 8.0258
1 15.1598 2.6752 6.2422
1 16.9432 0.8918 6.2422
1 14.2680 0.0000 7.1340
1 16.0515 1.7835 7.1340
1 15.1598 0.8918 8.0258
1 16.9432 2.6752 8.0258
1 0.8918 6.2422 6.2422
1 2.6752 4.4588 6.2422
1 0.0000 3.5670 7.1340
1 1.7835 5.3505 7.1340
1 0.8918 4.4588 8.0258
1 2.6752 6.2422 8.0258
1 4.4588 6.2422 6.2422
1 6.2422 4.4588 6.2422
1 3.5670 3.5670 7.1340
1 5.3505 5.3505 7.1340
1 4.4588 4.4588 8.0258
1 6.2422 6.2422 8.0258
1 8.0258 6.2422 6.2422
1 9.8092 4.4588 6.2422
1 7.1340 3.5670 7.1340
1 8.9175 5.3505 7.1340
1 8.0258 4.4588 8.0258
1 9.8092 6.2422 8.0258
1 11.5928 6.2422 6.2422
1 13.3763 4.4588 6.2422
1 10.7010 3.5670 7.1340
1 12.4845 5.3505 7.1340
1 11.5928 4.4588 8.0258
1 13.3763 6.2422 8.0258
1 15.1598 6.2422 6.2422
1 16.9432 4.4588 6.2422
1 14.2680 3.5670 7.1340
1 16.0515 5.3505 7.1340
1 15.1598 4.4588 8.0258
1 16.9432 6.2422 8.0258
1 0.8918 9.8092 6.2422
1 2.6752 8.0258 6.2422
1 0.0000 7.1340 7.1340
1 1.7835 8.9175 7.1340
1 0.8918 8.0258 8.0258
1 2.6752 9.8092 8.0258
1 4.4588 9.8092 6.2422
1 6.2422 8.0258 6.2422
1 3.5670 7.1340 7.1340
1 5.3505 8.9175 7.1340
1 4.4588 8.0258 8.0258
1 6.2422 9.8092 8.0258
1 8.0258 9.8092 6.2422
1 9.8092 8.0258 6.2422
1 7.1340 7.1340 7.1340
1 8.9175 8.9175 7.1340
1 8.0258 8.0258 8.0258
1 9.8092 9.8092 8.0258
1 11.5928 9.8092 6.2422
1 13.3763 8.0258 6.2422
1 10.7010 7.1340 7.1340
1 12.4845 8.9175 7.1340
1 11.5928 8.0258 8.0258
1 13.3763 9.8092 8.0258
1 15.1598 9.8092 6.2422
1 16.9432 8.0258 6.2422
1 14.2680 7.1340 7.1340
1 16.0515 8.9175 7.1340
1 15.1598 8.0258 8.0258
1 16.9432 9.8092 8.0258
1 0.8918 13.3763 6.2422
1 2.6752 11.5928 6.2422
1 0.0000 10.7010 7.1340
1 1.7835 12.4845 7.1340
1 0.8918 11.5928 8.0258
1 2.6752 13.3763 8.0258
1 4.4588 13.3763 6.2422
1 6.2422 11.5928 6.2422
1 3.5670 10.7010 7.1340
1 5.3505 12.4845 7.1340
1 4.4588 11.5928 8.0258
1 6.2422 13.3763 8.0258
1 8.0258 13.3763 6.2422
1 9.8092 11.5928 6.2422
1 7.1340 10.7010 7.1340
1 8.9175 12.4845 7.1340
1 8.0258 11.5928 8.0258
1 9.8092 13.3763 8.0258
1 11.5928 13.3763 6.2422
1 13.3763 11.5928 6.2422
1 10.7010 10.7010 7.1340
1 12.4845 12.4845 7.1340
1 11.5928 11.5928 8.0258
1 13.3763 13.3763 8.0258
1 15.1598 13.3763 6.2422
1 16.9432 11.5928 6.2422
1 14.2680 10.7010 7.1340
1 16.0515 12.4845 7.1340
1 15.1598 11.5928 8.0258
1 16.9432 13.3763 8.0258
1 0.8918 16.9432 6.2422
1 2.6752 15.1598 6.2422
1 0.0000 14.2680 7.1340
1 1.7835 16.0515 7.1340
1 0.8918 15.1598 8.0258
1 2.6752 16.9432 8.0258
1 4.4588 16.9432 6.2422
1 6.2422 15.1598 6.2422
1 3.5670 14.2680 7.1340
1 5.3505 16.0515 7.1340
1 4.4588 15.1598 8.0258
1 6.2422 16.9432 8.0258
1 8.0258 16.9432 6.2422
1 9.8092 15.1598 6.2422
1 7.1340 14.2680 7.1340
1 8.9175 16.0515 7.1340
1 8.0258 15.1598 8.0258
1 9.8092 16.9432 8.0258
1 11.5928 16.9432 6.2422
1 13.3763 15.1598 6.2422
1 10.7010 14.2680 7.1340
1 12.4845 16.0515 7.1340
1 11.5928 15.1598 8.0258
1 13.3763 16.9432 8.0258
1 15.1598 16.9432 6.2422
1 16.9432 15.1598 6.2422
1 14.2680 14.2680 7.1340
1 16.0515 16.0515 7.1340
1 15.1598 15.1598 8.0258
1 16.9432 16.9432 8.0258
1 0.0000 1.7835 8.9175
1 1.7835 0.0000 8.9175
1 0.8918 2.6752 9.8092
1 2.6752 0.8918 9.8092
1 0.0000 0.0000 10.7010
1 1.7835 1.7835 10.7010
1 0.8918 0.8918 11.5928
1 2.6752 2.6752 11.5928
1 3.5670 1.7835 8.9175
1 5.3505 0.0000 8.9175
1 4.4588 2.6752 9.8092
1 6.2422 0.8918 9.8092
1 3.5670 0.0000 10.7010
1 5.3505 1.7835 10.7010
1 4.4588 0.8918 11.5928
1 6.2422 2.6752 11.5928
1 7.1340 1.7835 8.9175
1 8.9175 0.0000 8.9175
1 8.0258 2.6752 9.8092
1 9.8092 0.8918 9.8092
1 7.1340 0.0000 10.7010
1 8.9175 1.7835 10.7010
1 8.0258 0.8918 11.5928
1 9.8092 2.6752 11.5928
1 10.7010 1.7835 8.9175
1 12.4845 0.0000 8.9175
1 11.5928 2.6752 9.8092
1 13.3763 0.8918 9.8092
1 10.7010 0.0000 10.7010
1 12.4845 1.7835 10.7010
1 11.5928 0.8918 11.5928
1 13.3763 2.6752 11.5928
1 14.2680 1.7835 8.9175
1 16.0515 0.0000 8.9175
1 15.1598 2.6752 9.8092
1 16.9432 0.8918 9.8092
1 14.2680 0.0000 10.7010
1 16.0515 1.7835 10.7010
1 15.1598 0.8918 11.5928
1 16.9432 2.6752 11.5928
1 0.0000 5.3505 8.9175
1 1.7835 3.5670 8.9175
1 0.8918 6.2422 9.8092
1 2.6752 4.4588 9.8092
1 0.0000 3.5670 10.7010
1 1.7835 5.3505 10.7010
1 0.8918 4.4588 11.5928
1 2.6752 6.2422 11.5928
1 3.5670 5.3505 8.9175
1 5.3505 3.5670 8.9175
1 4.4588 6.2422 9.8092
1 6.2422 4.4588 9.8092
1 3.5670 3.5670 10.7010
1 5.3505 5.3505 10.7010
1 4.4588 4.4588 11.5928
1 6.2422 6.2422 11.5928
1 7.1340 5.3505 8.9175
1 8.9175 3.5670 8.9175
1 8.0258 6.2422 9.8092
1 9.8092 4.4588 9.8092
1 7.1340 3.5670 10.7010
1 8.9175 5.3505 10.7010
1 8.0258 4.4588 11.5928
1 9.8092 6.2422 11.5928
1 10.7010 5.3505 8.9175
1 12.4845 3.5670 8.9175
1 11.5928 6.2422 9.8092
1 13.3763 4.4588 9.8092
1 10.7010 3.5670 10.7010
1 12.4845 5.3505 10.7010
1 11.5928 4.4588 11.5928
1 13.3763 6.2422 11.5928
1 14.2680 5.3505 8.9175
1 16.0515 3.5670 8.9175
1 15.1598 6.2422 9.8092
1 16.9432 4.4588 9.8092
1 14.2680 3.5670 10.7010
1 16.0515 5.3505 10.7010
1 15.1598 4.4588 11.5928
1 16.9432 6.2422 11.5928
1 0.0000 8.9175 8.9175
1 1.7835 7.1340 8.9175
1 0.8918 9.8092 9.8092
1 2.6752 8.0258 9.8092
1 0.0000 7.1340 10.7010
1 1.7835 8.9175 10.7010
1 0.8918 8.0258 11.5928
1 2.6752 9.8092 11.5928
1 3.5670 8.9175 8.9175
1 5.3505 7.1340 8.9175
1 4.4588 9.8092 9.8092
1 6.2422 8.0258 9.8092
1 3.5670 7.1340 10.7010
1 5.3505 8.9175 10.7010
1 4.4588 8.0258 11.5928
1 6.2422 9.8092 11.5928
1 7.1340 8.9175 8.9175
1 8.9175 7.1340 8.9175
1 8.0258 9.8092 9.8092
1 9.8092 8.0258 9.8092
1 7.1340 7.1340 10.7010
1 8.9175 8.9175 10.7010
1 8.0258 8.0258 11.5928
1 9.8092 9.8092 11.5928
1 10.7010 8.9175 8.9175
1 12.4845 7.1340 8.9175
1 11.5928 9.8092 9.8092
1 13.3763 8.0258 9.8092
1 10.7010 7.1340 10.7010
1 12.4845 8.9175 10.7010
1 11.5928 8.0258 11.5928
1 13.3763 9.8092 11.5928
1 14.2680 8.9175 8.9175
1 16.0515 7.1340 8.9175
1 15.1598 9.8092 9.8092
1 16.9432 8.0258 9.8092
1 14.2680 7.1340 10.7010
1 16.0515 8.9175 10.7010
1 15.1598 8.0258 11.5928
1 16.9432 9.8092 11.5928
1 0.0000 12.4845 8.9175
1 1.7835 10.7010 8.9175
1 0.8918 13.3763 9.8092
1 2.6752 11.5928 9.8092
1 0.0000 10.7010 10.7010
1 1.7835 12.4845 10.7010
1 0.8918 11.5928 11.5928
1 2.6752 13.3763 11.5928
1 3.5670 12.4845 8.9175
1 5.3505 10.7010 8.9175
1 4.4588 13.3763 9.8092
1 6.2422 11.5928 9.8092
1 3.5670 10.7010 10.7010
1 5.3505 12.4845 10.7010
1 4.4588 11.5928 11.5928
1 6.2422 13.3763 11.5928
1 7.1340 12.4845 8.9175
1 8.9175 10.7010 8.9175
1 8.0258 13.3763 9.8092
1 9.8092 11.5928 9.8092
1 7.1340 10.7010 10.7010
1 8.9175 12.4845 10.7010
1 8.0258 11.5928 11.5928
1 9.8092 13.3763 11.5928
1 10.7010 12.4845 8.9175
1 12.4845 10.7010 8.9175
1 11.5928 13.3763 9.8092
1 13.3763 11.5928 9.8092
1 10.7010 10.7010 10.7010
1 12.4845 12.4845 10.7010
1 11.5928 11.5928 11.5928
1 13.3763 13.3763 11.5928
1 14.2680 12.4845 8.9175
1 16.0515 10.7010 8.9175
1 15.1598 13.3763 9.8092
1 16.9432 11.5928 9.8092
1 14.2680 10.7010 10.7010
1 16.0515 12.4845 10.7010
1 15.1598 11.5928 11.5928
1 16.9432 13.3763 11.5928
1 0.0000 16.0515 8.9175
1 1.7835 14.2680 8.9175
1 0.8918 16.9432 9.8092
1 2.6752 15.1598 9.8092
1 0.0000 14.2680 10.7010
1 1.7835 16.0515 10.7010
1 0.8918 15.1598 11.5928
1 2.6752 16.9432 11.5928
1 3.5670 16.0515 8.9175
1 5.3505 14.2680 8.9175
1 4.4588 16.9432 9.8092
1 6.2422 15.1598 9.8092
1 3.5670 14.2680 10.7010
1 5.3505 16.0515 10.7010
1 4.4588 15.1598 11.5928
1 6.2422 16.9432 11.5928
1 7.1340 16.0515 8.9175
1 8.9175 14.2680 8.9175
1 8.0258 16.9432 9.8092
1 9.8092 15.1598 9.8092
1 7.1340 14.2680 10.7010
1 8.9175 16.0515 10.7010
1 8.0258 15.1598 11.5928
1 9.8092 16.9432 11.5928
1 10.7010 16.0515 8.9175
1 12.4845 14.2680 8.9175
1 11.5928 16.9432 9.8092
1 13.3763 15.1598 9.8092
1 10.7010 14.2680 10.7010
1 12.4845 16.0515 10.7010
1 11.5928 15.1598 11.5928
1 13.3763 16.9432 11.5928
1 14.2680 16.0515 8.9175
1 16.0515 14.2680 8.9175
1 15.1598 16.9432 9.8092
1 16.9432 15.1598 9.8092
1 14.2680 14.2680 10.7010
1 16.0515 16.0515 10.7010
1 15.1598 15.1598 11.5928
1 16.9432 16.9432 11.5928
1 0.0000 1.7835 12.4845
1 1.7835 0.0000 12.4845
1 0.8918 2.6752 13.3763
1 2.6752 0.8918 13.3763
1 0.0000 0.0000 14.2680
1 1.7835 1.7835 14.2680
1 0.8918 0.8918 15.1598
1 2.6752 2.6752 15.1598
1 3.5670 1.7835 12.4845
1 5.3505 0.0000 12.4845
1 4.4588 2.6752 13.3763
1 6.2422 0.8918 13.3763
1 3.5670 0.0000 14.2680
1 5.3505 1.7835 14.2680
1 4.4588 0.8918 15.1598
1 6.2422 2.6752 15.1598
1 7.1340 1.7835 12.4845
1 8.9175 0.0000 12.4845
1 8.0258 2.6752 13.3763
1 9.8092 0.8918 13.3763
1 7.1340 0.0000 14.2680
1 8.9175 1.7835 14.2680
1 8.0258 0.8918 15.1598
1 9.8092 2.6752 15.1598
1 10.7010 1.7835 12.4845
1 12.4845 0.0000 12.4845
1 11.5928 2.6752 13.3763
1 13.3763 0.8918 13.3763
1 10.7010 0.0000 14.2680
1 12.4845 1.7835 14.2680
1 11.5928 0.8918 15.1598
1 13.3763 2.6752 15.1598
1 14.2680 1.7835 12.4845
1 16.0515 0.0000 12.4845
1 15.1598 2.6752 13.3763
1 16.9432 0.8918 13.3763
1 14.2680 0.0000 14.2680
1 16.0515 1.7835 14.2680
1 15.1598 0.8918 15.1598
1 16.9432 2.6752 15.1598
1 0.0000 5.3505 12.4845
1 1.7835 3.5670 12.4845
1 0.8918 6.2422 13.3763
1 2.6752 4.4588 13.3763
1 0.0000 3.5670 14.2680
1 1.7835 5.3505 14.2680
1 0.8918 4.4588 15.1598
1 2.6752 6.2422 15.1598
1 3.5670 5.3505 12.4845
1 5.3505 3.5670 12.4845
1 4.4588 6.2422 13.3763
1 6.2422 4.4588 13.3763
1 3.5670 3.5670 14.2680
1 5.3505 5.3505 14.2680
1 4.4588 4.4588 15.1598
1 6.2422 6.2422 15.1598
1 7.1340 5.3505 12.4845
1 8.9175 3.5670 12.4845
1 8.0258 6.2422 13.3763
1 9.8092 4.4588 13.3763
1 7.1340 3.5670 14.2680
1 8.9175 5.3505 14.2680
1 8.0258 4.4588 15.1598
1 9.8092 6.2422 15.1598
1 10.7010 5.3505 12.4845
1 12.4845 3.5670 12.4845
1 11.5928 6.2422 13.3763
1 13.3763 4.4588 13.3763
1 10.7010 3.5670 14.2680
1 12.4845 5.3505 14.2680
1 11.5928 4.4588 15.1598
1 13.3763 6.2422 15.1598
1 14.2680 5.3505 12.4845
1 16.0515 3.5670 12.4845
1 15.1598 6.2422 13.3763
1 16.9432 4.4588 13.3763
1 14.2680 3.5670 14.2680
1 16.0515 5.3505 14.2680
1 15.1598 4.4588 15.1598
1 16.9432 6.2422 15.1598
1 0.0000 8.9175 12.4845
1 1.7835 7.1340 12.4845
1 0.8918 9.8092 13.3763
1 2.6752 8.0258 13.3763
1 0.0000 7.1340 14.2680
1 1.7835 8.9175 14.2680
1 0.8918 8.0258 15.1598
1 2.6752 9.8092 15.1598
1 3.5670 8.9175 12.4845
1 5.3505 7.1340 12.4845
1 4.4588 9.8092 13.3763
1 6.2422 8.0258 13.3763
1 3.5670 7.1340 14.2680
1 5.3505 8.9175 14.2680
1 4.4588 8.0258 15.1598
1 6.2422 9.8092 15.1598
1 7.1340 8.9175 12.4845
1 8.9175 7.1340 12.4845
1 8.0258 9.8092 13.3763
1 9.8092 8.0258 13.3763
1 7.1340 7.1340 14.2680
1 8.9175 8.9175 14.2680
1 8.0258 8.0258 15.1598
1 9.8092 9.8092 15.1598
1 10.7010 8.9175 12.4845
1 12.4845 7.1340 12.4845
1 11.5928 9.8092 13.3763
1 13.3763 8.0258 13.3763
1 10.7010 7.1340 14.2680
1 12.4845 8.9175 14.2680
1 11.5928 8.0258 15.1598
1 13.3763 9.8092 15.1598
1 14.2680 8.9175 12.4845
1 16.0515 7.1340 12.4845
1 15.1598 9.8092 13.3763
1 16.9432 8.0258 13.3763
1 14.2680 7.1340 14.2680
1 16.0515 8.9175 14.2680
1 15.1598 8.0258 15.1598
1 16.9432 9.8092 15.1598
1 0.0000 12.4845 12.4845
1 1.7835 10.7010 12.4845
1 0.8918 13.3763 13.3763
1 2.6752 11.5928 13.3763
1 0.0000 10.7010 14.2680
1 1.7835 12.4845 14.2680
1 0.8918 11.5928 15.1598
1 2.6752 13.3763 15.1598
1 3.5670 12.4845 12.4845
1 5.3505 10.7010 12.4845
1 4.4588 13.3763 13.3763
1 6.2422 11.5928 13.3763
1 3.5670 10.7010 14.2680
1 5.3505 12.4845 14.2680
1 4.4588 11.5928 15.1598
1 6.2422 13.3763 15.1598
1 7.1340 12.4845 12.4845
1 8.9175 10.7010 12.4845
1 8.0258 13.3763 13.3763
1 9.8092 11.5928 13.3763
1 7.1340 10.7010 14.2680
1 8.9175 12.4845 14.2680
1 8.0258 11.5928 15.1598
1 9.8092 13.3763 15.1598
1 10.7010 12.4845 12.4845
1 12.4845 10.7010 12.4845
1 11.5928 13.3763 13.3763
1 13.3763 11.5928 13.3763
1 10.7010 10.7010 14.2680
1 12.4845 12.4845 14.2680
1 11.5928 11.5928 15.1598
1 13.3763 13.3763 15.1598
1 14.2680 12.4845 12.4845
1 16.0515 10.7010 12.4845
1 15.1598 13.3763 13.3763
1 16.9432 11.5928 13.3763
1 14.2680 10.7010 14.2680
1 16.0515 12.4845 14.2680
1 15.1598 11.5928 15.1598
1 16.9432 13.3763 15.1598
1 0.0000 16.0515 12.4845
1 1.7835 14.2680 12.4845
1 0.8918 16.9432 13.3763
1 2.6752 15.1598 13.3763
1 0.0000 14.2680 14.2680
1 1.7835 16.0515 14.2680
1 0.8918 15.1598 15.1598
1 2.6752 16.9432 15.1598
1 3.5670 16.0515 12.4845
1 5.3505 14.2680 12.4845
1 4.4588 16.9432 13.3763
1 6.2422 15.1598 13.3763
1 3.5670 14.2680 14.2680
1 5.3505 16.0515 14.2680
1 4.4588 15.1598 15.1598
1 6.2422 16.9432 15.1598
1 7.1340 16.0515 12.4845
1 8.9175 14.2680 12.4845
1 8.0258 16.9432 13.3763
1 9.8092 15.1598 13.3763
1 7.1340 14.2680 14.2680
1 8.9175 16.0515 14.2680
1 8.0258 15.1598 15.1598
1 9.8092 16.9432 15.1598
1 10.7010 16.0515 12.4845
1 12.4845 14.2680 12.4845
1 11.5928 16.9432 13.3763
1 13.3763 15.1598 13.3763
1 10.7010 14.2680 14.2680
1 12.4845 16.0515 14.2680
1 11.5928 15.1598 15.1598
1 13.3763 16.9432 15.1598
1 14.2680 16.0515 12.4845
1 16.0515 14.2680 12.4845
1 15.1598 16.9432 13.3763
1 16.9432 15.1598 13.3763
1 14.2680 14.2680 14.2680
1 16.0515 16.0515 14.2680
1 15.1598 15.1598 15.1598
1 16.9432 16.9432 15.1598
1 0.0000 1.7835 16.0515
1 1.7835 0.0000 16.0515
1 0.8918 2.6752 16.9432
1 2.6752 0.8918 16.9432
1 3.5670 1.7835 16.0515
1 5.3505 0.0000 16.0515
1 4.4588 2.6752 16.9432
1 6.2422 0.8918 16.9432
1 7.1340 1.7835 16.0515
1 8.9175 0.0000 16.0515
1 8.0258 2.6752 16.9432
1 9.8092 0.8918 16.9432
1 10.7010 1.7835 16.0515
1 12.4845 0.0000 16.0515
1 11.5928 2.6752 16.9432
1 13.3763 0.8918 16.9432
1 14.2680 1.7835 16.0515
1 16.0515 0.0000 16.0515
1 15.1598 2.6752 16.9432
1 16.9432 0.8918 16.9432
1 0.0000 5.3505 16.0515
1 1.7835 3.5670 16.0515
1 0.8918 6.2422 16.9432
1 2.6752 4.4588 16.9432
1 3.5670 5.3505 16.0515
1 5.3505 3.5670 16.0515
1 4.4588 6.2422 16.9432
1 6.2422 4.4588 16.9432
1 7.1340 5.3505 16.0515
1 8.9175 3.5670 16.0515
1 8.0258 6.2422 16.9432
1 9.8092 4.4588 16.9432
1 10.7010 5.3505 16.0515
1 12.4845 3.5670 16.0515
1 11.5928 6.2422 16.9432
1 13.3763 4.4588 16.9432
1 14.2680 5.3505 16.0515
1 16.0515 3.5670 16.0515
1 15.1598 6.2422 16.9432
1 16.9432 4.4588 16.9432
1 0.0000 8.9175 16.0515
1 1.7835 7.1340 16.0515
1 0.8918 9.8092 16.9432
1 2.6752 8.0258 16.9432
1 3.5670 8.9175 16.0515
1 5.3505 7.1340 16.0515
1 4.4588 9.8092 16.9432
1 6.2422 8.0258 16.9432
1 7.1340 8.9175 16.0515
1 8.9175 7.1340 16.0515
1 8.0258 9.8092 16.9432
1 9.8092 8.0258 16.9432
1 10.7010 8.9175 16.0515
1 12.4845 7.1340 16.0515
1 11.5928 9.8092 16.9432
1 13.3763 8.0258 16.9432
1 14.2680 8.9175 16.0515
1 16.0515 7.1340 16.0515
1 15.1598 9.8092 16.9432
1 16.9432 8.0258 16.9432
1 0.0000 12.4845 16.0515
1 1.7835 10.7010 16.0515
1 0.8918 13.3763 16.9432
1 2.6752 11.5928 16.9432
1 3.5670 12.4845 16.0515
1 5.3505 10.7010 16.0515
1 4.4588 13.3763 16.9432
1 6.2422 11.5928 16.9432
1 7.1340 12.4845 16.0515
1 8.9175 10.7010 16.0515
1 8.0258 13.3763 16.9432
1 9.8092 11.5928 16.9432
1 10.7010 12.4845 16.0515
1 12.4845 10.7010 16.0515
1 11.5928 13.3763 16.9432
1 13.3763 11.5928 16.9432
1 14.2680 12.4845 16.0515
1 16.0515 10.7010 16.0515
1 15.1598 13.3763 16.9432
1 16.9432 11.5928 16.9432
1 0.0000 16.0515 16.0515
1 1.7835 14.2680 16.0515
1 0.8918 16.9432 16.9432
1 2.6752 15.1598 16.9432
1 3.5670 16.0515 16.0515
1 5.3505 14.2680 16.0515
1 4.4588 16.9432 16.9432
1 6.2422 15.1598 16.9432
1 7.1340 16.0515 16.0515
1 8.9175 14.2680 16.0515
1 8.0258 16.9432 16.9432
1 9.8092 15.1598 16.9432
1 10.7010 16.0515 16.0515
1 12.4845 14.2680 16.0515
1 11.5928 16.9432 16.9432
1 13.3763 15.1598 16.9432
1 14.2680 16.0515 16.0515
1 16.0515 14.2680 16.0515
1 15.1598 16.9432 16.9432
1 16.9432 15.1598 16.9432
