LAMMPS data file from restart file: timestep = 1, procs = 1

1179 atoms

3 atom types

0.0000 10.1899 xlo xhi
0.0000 20.3798 ylo yhi
-50 71.34 zlo zhi

Masses

1 12.01
2 2
3 3

Atoms

1 1 10.0890 1.2611 0.0000
2 1 7.5668 1.2612 0.0000
3 1 10.0890 3.7835 0.0000
4 1 5.0444 1.2612 0.0000
5 1 2.5223 1.2612 0.0000
6 1 7.5667 3.7834 0.0000
7 1 5.0445 3.7835 0.0000
8 1 10.0890 6.3057 0.0000
9 1 7.5668 6.3057 0.0000
10 1 10.0890 8.8280 0.0000
11 1 0.0000 1.2611 0.0000
12 1 2.5223 3.7834 0.0000
13 1 0.0000 3.7835 0.0000
14 1 5.0445 6.3056 0.0000
15 1 2.5223 6.3057 0.0000
16 1 7.5668 8.8279 0.0000
17 1 5.0445 8.8280 0.0000
18 1 10.0890 11.3501 0.0000
19 1 7.5668 11.3502 0.0000
20 1 10.0890 13.8725 0.0000
21 1 0.0000 6.3056 0.0000
22 1 2.5223 8.8279 0.0000
23 1 0.0000 8.8280 0.0000
24 1 5.0446 11.3502 0.0000
25 1 2.5223 11.3502 0.0000
26 1 7.5668 13.8724 0.0000
27 1 5.0445 13.8725 0.0000
28 1 10.0890 16.3946 0.0000
29 1 7.5668 16.3947 0.0000
30 1 10.0890 18.9170 0.0000
31 1 0.0000 11.3501 0.0000
32 1 2.5223 13.8724 0.0000
33 1 0.0000 13.8725 0.0000
34 1 5.0445 16.3946 0.0000
35 1 2.5223 16.3947 0.0000
36 1 7.5668 18.9169 0.0000
37 1 5.0445 18.9170 0.0000
38 1 0.0001 16.3947 0.0000
39 1 2.5223 18.9169 0.0000
40 1 0.0000 18.9170 0.0000
41 1 10.0890 0.0000 2.6752
42 1 6.3056 0.0000 1.7834
43 1 5.0445 0.0000 2.6752
44 1 8.8279 0.0000 1.7834
45 1 10.0890 1.2611 3.5670
46 1 6.3056 1.2612 0.8917
47 1 8.8279 1.2612 0.8917
48 1 8.8278 2.5223 1.7834
49 1 7.5668 0.0000 2.6752
50 1 7.5668 2.5223 2.6752
51 1 7.5668 1.2612 3.5670
52 1 8.8279 3.7834 0.8917
53 1 10.0890 2.5223 2.6752
54 1 10.0890 5.0445 2.6752
55 1 10.0890 3.7835 3.5670
56 1 1.2611 0.0000 1.7834
57 1 0.0000 0.0000 2.6752
58 1 3.7834 0.0001 1.7834
59 1 5.0444 1.2612 3.5670
60 1 1.2611 1.2612 0.8917
61 1 3.7834 1.2612 0.8917
62 1 3.7833 2.5223 1.7834
63 1 2.5223 0.0000 2.6752
64 1 2.5223 2.5223 2.6752
65 1 2.5223 1.2612 3.5670
66 1 6.3056 2.5224 1.7834
67 1 7.5667 3.7834 3.5670
68 1 3.7834 3.7834 0.8917
69 1 6.3056 3.7834 0.8917
70 1 6.3056 5.0445 1.7834
71 1 5.0445 2.5223 2.6752
72 1 5.0445 5.0445 2.6752
73 1 5.0445 3.7835 3.5670
74 1 8.8279 5.0446 1.7834
75 1 10.0890 6.3057 3.5670
76 1 6.3056 6.3057 0.8917
77 1 8.8279 6.3057 0.8917
78 1 8.8279 7.5669 1.7834
79 1 7.5668 5.0445 2.6752
80 1 7.5668 7.5668 2.6752
81 1 7.5668 6.3057 3.5670
82 1 8.8279 8.8279 0.8917
83 1 10.0890 7.5668 2.6752
84 1 10.0890 10.0890 2.6752
85 1 10.0890 8.8280 3.5670
86 1 0.0000 1.2611 3.5670
87 1 1.2612 2.5223 1.7834
88 1 2.5223 3.7834 3.5670
89 1 1.2611 3.7834 0.8917
90 1 1.2611 5.0445 1.7834
91 1 0.0000 2.5223 2.6752
92 1 0.0000 3.7835 3.5670
93 1 3.7834 5.0445 1.7834
94 1 5.0445 6.3056 3.5670
95 1 3.7834 6.3057 0.8917
96 1 3.7833 7.5668 1.7834
97 1 2.5223 5.0445 2.6752
98 1 2.5223 6.3057 3.5670
99 1 6.3057 7.5668 1.7834
100 1 7.5668 8.8279 3.5670
101 1 6.3056 8.8279 0.8917
102 1 6.3056 10.0891 1.7834
103 1 5.0445 7.5668 2.6752
104 1 5.0445 8.8280 3.5670
105 1 8.8279 10.0890 1.7834
106 1 10.0890 11.3501 3.5670
107 1 8.8279 11.3502 0.8917
108 1 8.8278 12.6113 1.7834
109 1 7.5668 10.0890 2.6752
110 1 7.5668 11.3502 3.5670
111 1 10.0890 12.6113 2.6752
112 1 10.0890 13.8725 3.5670
113 1 0.0000 5.0445 2.6752
114 1 0.0000 6.3056 3.5670
115 1 1.2611 6.3057 0.8917
116 1 1.2612 7.5668 1.7834
117 1 2.5223 7.5668 2.6752
118 1 2.5223 8.8279 3.5670
119 1 1.2611 8.8279 0.8917
120 1 1.2611 10.0890 1.7834
121 1 0.0000 7.5668 2.6752
122 1 0.0000 8.8280 3.5670
123 1 3.7834 8.8279 0.8917
124 1 3.7834 10.0890 1.7834
125 1 5.0445 10.0890 2.6752
126 1 5.0446 11.3502 3.5670
127 1 3.7834 11.3502 0.8917
128 1 3.7834 12.6114 1.7834
129 1 2.5223 10.0890 2.6752
130 1 2.5223 11.3502 3.5670
131 1 6.3056 11.3502 0.8917
132 1 6.3057 12.6113 1.7834
133 1 7.5668 12.6113 2.6752
134 1 7.5668 13.8724 3.5670
135 1 6.3056 13.8724 0.8917
136 1 6.3056 15.1335 1.7834
137 1 5.0445 12.6113 2.6752
138 1 5.0445 13.8725 3.5670
139 1 8.8279 13.8724 0.8917
140 1 8.8279 15.1335 1.7834
141 1 10.0890 15.1335 2.6752
142 1 10.0890 16.3946 3.5670
143 1 8.8279 16.3947 0.8917
144 1 8.8278 17.6558 1.7834
145 1 7.5668 15.1335 2.6752
146 1 7.5668 16.3947 3.5670
147 1 10.0890 17.6558 2.6752
148 1 10.0890 18.9170 3.5670
149 1 0.0000 10.0890 2.6752
150 1 0.0000 11.3501 3.5670
151 1 1.2611 11.3502 0.8917
152 1 1.2612 12.6113 1.7834
153 1 2.5223 12.6113 2.6752
154 1 2.5223 13.8724 3.5670
155 1 1.2611 13.8724 0.8917
156 1 1.2611 15.1336 1.7834
157 1 0.0000 12.6113 2.6752
158 1 0.0000 13.8725 3.5670
159 1 3.7834 13.8724 0.8917
160 1 3.7834 15.1335 1.7834
161 1 5.0445 15.1335 2.6752
162 1 5.0445 16.3946 3.5670
163 1 3.7834 16.3947 0.8917
164 1 3.7833 17.6558 1.7834
165 1 2.5223 15.1335 2.6752
166 1 2.5223 16.3947 3.5670
167 1 6.3056 16.3947 0.8917
168 1 6.3057 17.6558 1.7834
169 1 7.5668 17.6558 2.6752
170 1 7.5668 18.9169 3.5670
171 1 6.3056 18.9169 0.8917
172 1 6.3056 20.1780 1.7834
173 1 5.0445 17.6558 2.6752
174 1 5.0445 18.9170 3.5670
175 1 8.8279 18.9169 0.8917
176 1 8.8279 20.1780 1.7834
177 1 10.0890 20.1780 2.6752
178 1 7.5668 20.1780 2.6752
179 1 0.0000 15.1335 2.6752
180 1 0.0001 16.3947 3.5670
181 1 1.2611 16.3947 0.8917
182 1 1.2612 17.6558 1.7834
183 1 2.5223 17.6558 2.6752
184 1 2.5223 18.9169 3.5670
185 1 1.2611 18.9169 0.8917
186 1 0.0000 17.6558 2.6752
187 1 3.7834 18.9169 0.8917
188 1 3.7834 20.1780 1.7834
189 1 5.0445 20.1780 2.6752
190 1 2.5223 20.1780 2.6752
191 1 1.2611 20.1780 1.7834
192 1 0.0000 20.1780 2.6752
193 1 0.0000 18.9170 3.5670
194 1 10.0890 0.0000 6.2422
195 1 6.3056 0.0000 5.3505
196 1 5.0445 0.0000 6.2422
197 1 8.8279 0.0000 5.3505
198 1 10.0890 1.2611 7.1340
199 1 6.3056 1.2612 4.4587
200 1 8.8279 1.2612 4.4587
201 1 8.8278 2.5223 5.3505
202 1 7.5668 0.0000 6.2422
203 1 7.5668 2.5223 6.2422
204 1 7.5668 1.2612 7.1340
205 1 8.8279 3.7834 4.4587
206 1 10.0890 2.5223 6.2422
207 1 10.0890 5.0445 6.2422
208 1 10.0890 3.7835 7.1340
209 1 1.2611 0.0000 5.3505
210 1 0.0000 0.0000 6.2422
211 1 3.7834 0.0001 5.3505
212 1 5.0444 1.2612 7.1340
213 1 1.2611 1.2612 4.4587
214 1 3.7834 1.2612 4.4587
215 1 3.7833 2.5223 5.3505
216 1 2.5223 0.0000 6.2422
217 1 2.5223 2.5223 6.2422
218 1 2.5223 1.2612 7.1340
219 1 6.3056 2.5224 5.3505
220 1 7.5667 3.7834 7.1340
221 1 3.7834 3.7834 4.4587
222 1 6.3056 3.7834 4.4587
223 1 6.3056 5.0445 5.3505
224 1 5.0445 2.5223 6.2422
225 1 5.0445 5.0445 6.2422
226 1 5.0445 3.7835 7.1340
227 1 8.8279 5.0446 5.3505
228 1 10.0890 6.3057 7.1340
229 1 6.3056 6.3057 4.4587
230 1 8.8279 6.3057 4.4587
231 1 8.8279 7.5669 5.3505
232 1 7.5668 5.0445 6.2422
233 1 7.5668 7.5668 6.2422
234 1 7.5668 6.3057 7.1340
235 1 8.8279 8.8279 4.4587
236 1 10.0890 7.5668 6.2422
237 1 10.0890 10.0890 6.2422
238 1 10.0890 8.8280 7.1340
239 1 0.0000 1.2611 7.1340
240 1 1.2612 2.5223 5.3505
241 1 2.5223 3.7834 7.1340
242 1 1.2611 3.7834 4.4587
243 1 1.2611 5.0445 5.3505
244 1 0.0000 2.5223 6.2422
245 1 0.0000 3.7835 7.1340
246 1 3.7834 5.0445 5.3505
247 1 5.0445 6.3056 7.1340
248 1 3.7834 6.3057 4.4587
249 1 3.7833 7.5668 5.3505
250 1 2.5223 5.0445 6.2422
251 1 2.5223 6.3057 7.1340
252 1 6.3057 7.5668 5.3505
253 1 7.5668 8.8279 7.1340
254 1 6.3056 8.8279 4.4587
255 1 6.3056 10.0891 5.3505
256 1 5.0445 7.5668 6.2422
257 1 5.0445 8.8280 7.1340
258 1 8.8279 10.0890 5.3505
259 1 10.0890 11.3501 7.1340
260 1 8.8279 11.3502 4.4587
261 1 8.8278 12.6113 5.3505
262 1 7.5668 10.0890 6.2422
263 1 7.5668 11.3502 7.1340
264 1 10.0890 12.6113 6.2422
265 1 10.0890 13.8725 7.1340
266 1 0.0000 5.0445 6.2422
267 1 0.0000 6.3056 7.1340
268 1 1.2611 6.3057 4.4587
269 1 1.2612 7.5668 5.3505
270 1 2.5223 7.5668 6.2422
271 1 2.5223 8.8279 7.1340
272 1 1.2611 8.8279 4.4587
273 1 1.2611 10.0890 5.3505
274 1 0.0000 7.5668 6.2422
275 1 0.0000 8.8280 7.1340
276 1 3.7834 8.8279 4.4587
277 1 3.7834 10.0890 5.3505
278 1 5.0445 10.0890 6.2422
279 1 5.0446 11.3502 7.1340
280 1 3.7834 11.3502 4.4587
281 1 3.7834 12.6114 5.3505
282 1 2.5223 10.0890 6.2422
283 1 2.5223 11.3502 7.1340
284 1 6.3056 11.3502 4.4587
285 1 6.3057 12.6113 5.3505
286 1 7.5668 12.6113 6.2422
287 1 7.5668 13.8724 7.1340
288 1 6.3056 13.8724 4.4587
289 1 6.3056 15.1335 5.3505
290 1 5.0445 12.6113 6.2422
291 1 5.0445 13.8725 7.1340
292 1 8.8279 13.8724 4.4587
293 1 8.8279 15.1335 5.3505
294 1 10.0890 15.1335 6.2422
295 1 10.0890 16.3946 7.1340
296 1 8.8279 16.3947 4.4587
297 1 8.8278 17.6558 5.3505
298 1 7.5668 15.1335 6.2422
299 1 7.5668 16.3947 7.1340
300 1 10.0890 17.6558 6.2422
301 1 10.0890 18.9170 7.1340
302 1 0.0000 10.0890 6.2422
303 1 0.0000 11.3501 7.1340
304 1 1.2611 11.3502 4.4587
305 1 1.2612 12.6113 5.3505
306 1 2.5223 12.6113 6.2422
307 1 2.5223 13.8724 7.1340
308 1 1.2611 13.8724 4.4587
309 1 1.2611 15.1336 5.3505
310 1 0.0000 12.6113 6.2422
311 1 0.0000 13.8725 7.1340
312 1 3.7834 13.8724 4.4587
313 1 3.7834 15.1335 5.3505
314 1 5.0445 15.1335 6.2422
315 1 5.0445 16.3946 7.1340
316 1 3.7834 16.3947 4.4587
317 1 3.7833 17.6558 5.3505
318 1 2.5223 15.1335 6.2422
319 1 2.5223 16.3947 7.1340
320 1 6.3056 16.3947 4.4587
321 1 6.3057 17.6558 5.3505
322 1 7.5668 17.6558 6.2422
323 1 7.5668 18.9169 7.1340
324 1 6.3056 18.9169 4.4587
325 1 6.3056 20.1780 5.3505
326 1 5.0445 17.6558 6.2422
327 1 5.0445 18.9170 7.1340
328 1 8.8279 18.9169 4.4587
329 1 8.8279 20.1780 5.3505
330 1 10.0890 20.1780 6.2422
331 1 7.5668 20.1780 6.2422
332 1 0.0000 15.1335 6.2422
333 1 0.0001 16.3947 7.1340
334 1 1.2611 16.3947 4.4587
335 1 1.2612 17.6558 5.3505
336 1 2.5223 17.6558 6.2422
337 1 2.5223 18.9169 7.1340
338 1 1.2611 18.9169 4.4587
339 1 0.0000 17.6558 6.2422
340 1 3.7834 18.9169 4.4587
341 1 3.7834 20.1780 5.3505
342 1 5.0445 20.1780 6.2422
343 1 2.5223 20.1780 6.2422
344 1 1.2611 20.1780 5.3505
345 1 0.0000 20.1780 6.2422
346 1 0.0000 18.9170 7.1340
347 1 10.0890 0.0000 9.8092
348 1 6.3056 0.0000 8.9174
349 1 5.0445 0.0000 9.8092
350 1 8.8279 0.0000 8.9174
351 1 6.3056 1.2612 8.0257
352 1 8.8279 1.2612 8.0257
353 1 8.8278 2.5223 8.9174
354 1 7.5668 0.0000 9.8092
355 1 7.5668 2.5223 9.8092
356 1 8.8279 3.7834 8.0257
357 1 10.0890 2.5223 9.8092
358 1 10.0890 5.0445 9.8092
359 1 1.2611 0.0000 8.9174
360 1 0.0000 0.0000 9.8092
361 1 3.7834 0.0001 8.9174
362 1 1.2611 1.2612 8.0257
363 1 3.7834 1.2612 8.0257
364 1 3.7833 2.5223 8.9174
365 1 2.5223 0.0000 9.8092
366 1 2.5223 2.5223 9.8092
367 1 6.3056 2.5224 8.9174
368 1 3.7834 3.7834 8.0257
369 1 6.3056 3.7834 8.0257
370 1 6.3056 5.0445 8.9174
371 1 5.0445 2.5223 9.8092
372 1 5.0445 5.0445 9.8092
373 1 8.8279 5.0446 8.9174
374 1 6.3056 6.3057 8.0257
375 1 8.8279 6.3057 8.0257
376 1 8.8279 7.5669 8.9174
377 1 7.5668 5.0445 9.8092
378 1 7.5668 7.5668 9.8092
379 1 8.8279 8.8279 8.0257
380 1 10.0890 7.5668 9.8092
381 1 10.0890 10.0890 9.8092
382 1 1.2612 2.5223 8.9174
383 1 1.2611 3.7834 8.0257
384 1 1.2611 5.0445 8.9174
385 1 0.0000 2.5223 9.8092
386 1 3.7834 5.0445 8.9174
387 1 3.7834 6.3057 8.0257
388 1 3.7833 7.5668 8.9174
389 1 2.5223 5.0445 9.8092
390 1 6.3057 7.5668 8.9174
391 1 6.3056 8.8279 8.0257
392 1 6.3056 10.0891 8.9174
393 1 5.0445 7.5668 9.8092
394 1 8.8279 10.0890 8.9174
395 1 8.8279 11.3502 8.0257
396 1 8.8278 12.6113 8.9174
397 1 7.5668 10.0890 9.8092
398 1 10.0890 12.6113 9.8092
399 1 0.0000 5.0445 9.8092
400 1 1.2611 6.3057 8.0257
401 1 1.2612 7.5668 8.9174
402 1 2.5223 7.5668 9.8092
403 1 1.2611 8.8279 8.0257
404 1 1.2611 10.0890 8.9174
405 1 0.0000 7.5668 9.8092
406 1 3.7834 8.8279 8.0257
407 1 3.7834 10.0890 8.9174
408 1 5.0445 10.0890 9.8092
409 1 3.7834 11.3502 8.0257
410 1 3.7834 12.6114 8.9174
411 1 2.5223 10.0890 9.8092
412 1 6.3056 11.3502 8.0257
413 1 6.3057 12.6113 8.9174
414 1 7.5668 12.6113 9.8092
415 1 6.3056 13.8724 8.0257
416 1 6.3056 15.1335 8.9174
417 1 5.0445 12.6113 9.8092
418 1 8.8279 13.8724 8.0257
419 1 8.8279 15.1335 8.9174
420 1 10.0890 15.1335 9.8092
421 1 8.8279 16.3947 8.0257
422 1 8.8278 17.6558 8.9174
423 1 7.5668 15.1335 9.8092
424 1 10.0890 17.6558 9.8092
425 1 0.0000 10.0890 9.8092
426 1 1.2611 11.3502 8.0257
427 1 1.2612 12.6113 8.9174
428 1 2.5223 12.6113 9.8092
429 1 1.2611 13.8724 8.0257
430 1 1.2611 15.1336 8.9174
431 1 0.0000 12.6113 9.8092
432 1 3.7834 13.8724 8.0257
433 1 3.7834 15.1335 8.9174
434 1 5.0445 15.1335 9.8092
435 1 3.7834 16.3947 8.0257
436 1 3.7833 17.6558 8.9174
437 1 2.5223 15.1335 9.8092
438 1 6.3056 16.3947 8.0257
439 1 6.3057 17.6558 8.9174
440 1 7.5668 17.6558 9.8092
441 1 6.3056 18.9169 8.0257
442 1 6.3056 20.1780 8.9174
443 1 5.0445 17.6558 9.8092
444 1 8.8279 18.9169 8.0257
445 1 8.8279 20.1780 8.9174
446 1 10.0890 20.1780 9.8092
447 1 7.5668 20.1780 9.8092
448 1 0.0000 15.1335 9.8092
449 1 1.2611 16.3947 8.0257
450 1 1.2612 17.6558 8.9174
451 1 2.5223 17.6558 9.8092
452 1 1.2611 18.9169 8.0257
453 1 0.0000 17.6558 9.8092
454 1 3.7834 18.9169 8.0257
455 1 3.7834 20.1780 8.9174
456 1 5.0445 20.1780 9.8092
457 1 2.5223 20.1780 9.8092
458 1 1.2611 20.1780 8.9174
459 1 0.0000 20.1780 9.8092
460 1 10.0890 0.0000 13.3762
461 1 6.3056 0.0000 12.4844
462 1 5.0445 0.0000 13.3762
463 1 8.8279 0.0000 12.4844
464 1 10.0890 1.2611 10.7010
465 1 6.3056 1.2612 11.5927
466 1 8.8279 1.2612 11.5927
467 1 7.5668 1.2612 10.7010
468 1 8.8278 2.5223 12.4844
469 1 7.5668 0.0000 13.3762
470 1 7.5668 2.5223 13.3762
471 1 8.8279 3.7834 11.5927
472 1 10.0890 3.7835 10.7010
473 1 10.0890 2.5223 13.3762
474 1 10.0890 5.0445 13.3762
475 1 1.2611 0.0000 12.4844
476 1 0.0000 0.0000 13.3762
477 1 3.7834 0.0001 12.4844
478 1 5.0444 1.2612 10.7010
479 1 1.2611 1.2612 11.5927
480 1 3.7834 1.2612 11.5927
481 1 2.5223 1.2612 10.7010
482 1 3.7833 2.5223 12.4844
483 1 2.5223 0.0000 13.3762
484 1 2.5223 2.5223 13.3762
485 1 6.3056 2.5224 12.4844
486 1 7.5667 3.7834 10.7010
487 1 3.7834 3.7834 11.5927
488 1 6.3056 3.7834 11.5927
489 1 5.0445 3.7835 10.7010
490 1 6.3056 5.0445 12.4844
491 1 5.0445 2.5223 13.3762
492 1 5.0445 5.0445 13.3762
493 1 8.8279 5.0446 12.4844
494 1 10.0890 6.3057 10.7010
495 1 6.3056 6.3057 11.5927
496 1 8.8279 6.3057 11.5927
497 1 7.5668 6.3057 10.7010
498 1 8.8279 7.5669 12.4844
499 1 7.5668 5.0445 13.3762
500 1 7.5668 7.5668 13.3762
501 1 8.8279 8.8279 11.5927
502 1 10.0890 8.8280 10.7010
503 1 10.0890 7.5668 13.3762
504 1 10.0890 10.0890 13.3762
505 1 0.0000 1.2611 10.7010
506 1 1.2612 2.5223 12.4844
507 1 2.5223 3.7834 10.7010
508 1 1.2611 3.7834 11.5927
509 1 0.0000 3.7835 10.7010
510 1 1.2611 5.0445 12.4844
511 1 0.0000 2.5223 13.3762
512 1 3.7834 5.0445 12.4844
513 1 5.0445 6.3056 10.7010
514 1 3.7834 6.3057 11.5927
515 1 2.5223 6.3057 10.7010
516 1 3.7833 7.5668 12.4844
517 1 2.5223 5.0445 13.3762
518 1 6.3057 7.5668 12.4844
519 1 7.5668 8.8279 10.7010
520 1 6.3056 8.8279 11.5927
521 1 5.0445 8.8280 10.7010
522 1 6.3056 10.0891 12.4844
523 1 5.0445 7.5668 13.3762
524 1 8.8279 10.0890 12.4844
525 1 10.0890 11.3501 10.7010
526 1 8.8279 11.3502 11.5927
527 1 7.5668 11.3502 10.7010
528 1 8.8278 12.6113 12.4844
529 1 7.5668 10.0890 13.3762
530 1 10.0890 13.8725 10.7010
531 1 10.0890 12.6113 13.3762
532 1 0.0000 6.3056 10.7010
533 1 0.0000 5.0445 13.3762
534 1 1.2611 6.3057 11.5927
535 1 1.2612 7.5668 12.4844
536 1 2.5223 8.8279 10.7010
537 1 2.5223 7.5668 13.3762
538 1 1.2611 8.8279 11.5927
539 1 0.0000 8.8280 10.7010
540 1 1.2611 10.0890 12.4844
541 1 0.0000 7.5668 13.3762
542 1 3.7834 8.8279 11.5927
543 1 3.7834 10.0890 12.4844
544 1 5.0446 11.3502 10.7010
545 1 5.0445 10.0890 13.3762
546 1 3.7834 11.3502 11.5927
547 1 2.5223 11.3502 10.7010
548 1 3.7834 12.6114 12.4844
549 1 2.5223 10.0890 13.3762
550 1 6.3056 11.3502 11.5927
551 1 6.3057 12.6113 12.4844
552 1 7.5668 13.8724 10.7010
553 1 7.5668 12.6113 13.3762
554 1 6.3056 13.8724 11.5927
555 1 5.0445 13.8725 10.7010
556 1 6.3056 15.1335 12.4844
557 1 5.0445 12.6113 13.3762
558 1 8.8279 13.8724 11.5927
559 1 8.8279 15.1335 12.4844
560 1 10.0890 16.3946 10.7010
561 1 10.0890 15.1335 13.3762
562 1 8.8279 16.3947 11.5927
563 1 7.5668 16.3947 10.7010
564 1 8.8278 17.6558 12.4844
565 1 7.5668 15.1335 13.3762
566 1 10.0890 18.9170 10.7010
567 1 10.0890 17.6558 13.3762
568 1 0.0000 11.3501 10.7010
569 1 0.0000 10.0890 13.3762
570 1 1.2611 11.3502 11.5927
571 1 1.2612 12.6113 12.4844
572 1 2.5223 13.8724 10.7010
573 1 2.5223 12.6113 13.3762
574 1 1.2611 13.8724 11.5927
575 1 0.0000 13.8725 10.7010
576 1 1.2611 15.1336 12.4844
577 1 0.0000 12.6113 13.3762
578 1 3.7834 13.8724 11.5927
579 1 3.7834 15.1335 12.4844
580 1 5.0445 16.3946 10.7010
581 1 5.0445 15.1335 13.3762
582 1 3.7834 16.3947 11.5927
583 1 2.5223 16.3947 10.7010
584 1 3.7833 17.6558 12.4844
585 1 2.5223 15.1335 13.3762
586 1 6.3056 16.3947 11.5927
587 1 6.3057 17.6558 12.4844
588 1 7.5668 18.9169 10.7010
589 1 7.5668 17.6558 13.3762
590 1 6.3056 18.9169 11.5927
591 1 5.0445 18.9170 10.7010
592 1 6.3056 20.1780 12.4844
593 1 5.0445 17.6558 13.3762
594 1 8.8279 18.9169 11.5927
595 1 8.8279 20.1780 12.4844
596 1 10.0890 20.1780 13.3762
597 1 7.5668 20.1780 13.3762
598 1 0.0001 16.3947 10.7010
599 1 0.0000 15.1335 13.3762
600 1 1.2611 16.3947 11.5927
601 1 1.2612 17.6558 12.4844
602 1 2.5223 18.9169 10.7010
603 1 2.5223 17.6558 13.3762
604 1 1.2611 18.9169 11.5927
605 1 0.0000 17.6558 13.3762
606 1 3.7834 18.9169 11.5927
607 1 3.7834 20.1780 12.4844
608 1 5.0445 20.1780 13.3762
609 1 2.5223 20.1780 13.3762
610 1 0.0000 18.9170 10.7010
611 1 1.2611 20.1780 12.4844
612 1 0.0000 20.1780 13.3762
613 1 10.0890 0.0000 16.9432
614 1 6.3056 0.0000 16.0514
615 1 5.0445 0.0000 16.9432
616 1 8.8279 0.0000 16.0514
617 1 10.0890 1.2611 14.2680
618 1 6.3056 1.2612 15.1597
619 1 8.8279 1.2612 15.1597
620 1 7.5668 1.2612 14.2680
621 1 8.8278 2.5223 16.0514
622 1 7.5668 0.0000 16.9432
623 1 7.5668 2.5223 16.9432
624 1 8.8279 3.7834 15.1597
625 1 10.0890 3.7835 14.2680
626 1 10.0890 2.5223 16.9432
627 1 10.0890 5.0445 16.9432
628 1 1.2611 0.0000 16.0514
629 1 0.0000 0.0000 16.9432
630 1 3.7834 0.0001 16.0514
631 1 5.0444 1.2612 14.2680
632 1 1.2611 1.2612 15.1597
633 1 3.7834 1.2612 15.1597
634 1 2.5223 1.2612 14.2680
635 1 3.7833 2.5223 16.0514
636 1 2.5223 0.0000 16.9432
637 1 2.5223 2.5223 16.9432
638 1 6.3056 2.5224 16.0514
639 1 7.5667 3.7834 14.2680
640 1 3.7834 3.7834 15.1597
641 1 6.3056 3.7834 15.1597
642 1 5.0445 3.7835 14.2680
643 1 6.3056 5.0445 16.0514
644 1 5.0445 2.5223 16.9432
645 1 5.0445 5.0445 16.9432
646 1 8.8279 5.0446 16.0514
647 1 10.0890 6.3057 14.2680
648 1 6.3056 6.3057 15.1597
649 1 8.8279 6.3057 15.1597
650 1 7.5668 6.3057 14.2680
651 1 8.8279 7.5669 16.0514
652 1 7.5668 5.0445 16.9432
653 1 7.5668 7.5668 16.9432
654 1 8.8279 8.8279 15.1597
655 1 10.0890 8.8280 14.2680
656 1 10.0890 7.5668 16.9432
657 1 10.0890 10.0890 16.9432
658 1 0.0000 1.2611 14.2680
659 1 1.2612 2.5223 16.0514
660 1 2.5223 3.7834 14.2680
661 1 1.2611 3.7834 15.1597
662 1 0.0000 3.7835 14.2680
663 1 1.2611 5.0445 16.0514
664 1 0.0000 2.5223 16.9432
665 1 3.7834 5.0445 16.0514
666 1 5.0445 6.3056 14.2680
667 1 3.7834 6.3057 15.1597
668 1 2.5223 6.3057 14.2680
669 1 3.7833 7.5668 16.0514
670 1 2.5223 5.0445 16.9432
671 1 6.3057 7.5668 16.0514
672 1 7.5668 8.8279 14.2680
673 1 6.3056 8.8279 15.1597
674 1 5.0445 8.8280 14.2680
675 1 6.3056 10.0891 16.0514
676 1 5.0445 7.5668 16.9432
677 1 8.8279 10.0890 16.0514
678 1 10.0890 11.3501 14.2680
679 1 8.8279 11.3502 15.1597
680 1 7.5668 11.3502 14.2680
681 1 8.8278 12.6113 16.0514
682 1 7.5668 10.0890 16.9432
683 1 10.0890 13.8725 14.2680
684 1 10.0890 12.6113 16.9432
685 1 0.0000 6.3056 14.2680
686 1 0.0000 5.0445 16.9432
687 1 1.2611 6.3057 15.1597
688 1 1.2612 7.5668 16.0514
689 1 2.5223 8.8279 14.2680
690 1 2.5223 7.5668 16.9432
691 1 1.2611 8.8279 15.1597
692 1 0.0000 8.8280 14.2680
693 1 1.2611 10.0890 16.0514
694 1 0.0000 7.5668 16.9432
695 1 3.7834 8.8279 15.1597
696 1 3.7834 10.0890 16.0514
697 1 5.0446 11.3502 14.2680
698 1 5.0445 10.0890 16.9432
699 1 3.7834 11.3502 15.1597
700 1 2.5223 11.3502 14.2680
701 1 3.7834 12.6114 16.0514
702 1 2.5223 10.0890 16.9432
703 1 6.3056 11.3502 15.1597
704 1 6.3057 12.6113 16.0514
705 1 7.5668 13.8724 14.2680
706 1 7.5668 12.6113 16.9432
707 1 6.3056 13.8724 15.1597
708 1 5.0445 13.8725 14.2680
709 1 6.3056 15.1335 16.0514
710 1 5.0445 12.6113 16.9432
711 1 8.8279 13.8724 15.1597
712 1 8.8279 15.1335 16.0514
713 1 10.0890 16.3946 14.2680
714 1 10.0890 15.1335 16.9432
715 1 8.8279 16.3947 15.1597
716 1 7.5668 16.3947 14.2680
717 1 8.8278 17.6558 16.0514
718 1 7.5668 15.1335 16.9432
719 1 10.0890 18.9170 14.2680
720 1 10.0890 17.6558 16.9432
721 1 0.0000 11.3501 14.2680
722 1 0.0000 10.0890 16.9432
723 1 1.2611 11.3502 15.1597
724 1 1.2612 12.6113 16.0514
725 1 2.5223 13.8724 14.2680
726 1 2.5223 12.6113 16.9432
727 1 1.2611 13.8724 15.1597
728 1 0.0000 13.8725 14.2680
729 1 1.2611 15.1336 16.0514
730 1 0.0000 12.6113 16.9432
731 1 3.7834 13.8724 15.1597
732 1 3.7834 15.1335 16.0514
733 1 5.0445 16.3946 14.2680
734 1 5.0445 15.1335 16.9432
735 1 3.7834 16.3947 15.1597
736 1 2.5223 16.3947 14.2680
737 1 3.7833 17.6558 16.0514
738 1 2.5223 15.1335 16.9432
739 1 6.3056 16.3947 15.1597
740 1 6.3057 17.6558 16.0514
741 1 7.5668 18.9169 14.2680
742 1 7.5668 17.6558 16.9432
743 1 6.3056 18.9169 15.1597
744 1 5.0445 18.9170 14.2680
745 1 6.3056 20.1780 16.0514
746 1 5.0445 17.6558 16.9432
747 1 8.8279 18.9169 15.1597
748 1 8.8279 20.1780 16.0514
749 1 10.0890 20.1780 16.9432
750 1 7.5668 20.1780 16.9432
751 1 0.0001 16.3947 14.2680
752 1 0.0000 15.1335 16.9432
753 1 1.2611 16.3947 15.1597
754 1 1.2612 17.6558 16.0514
755 1 2.5223 18.9169 14.2680
756 1 2.5223 17.6558 16.9432
757 1 1.2611 18.9169 15.1597
758 1 0.0000 17.6558 16.9432
759 1 3.7834 18.9169 15.1597
760 1 3.7834 20.1780 16.0514
761 1 5.0445 20.1780 16.9432
762 1 2.5223 20.1780 16.9432
763 1 0.0000 18.9170 14.2680
764 1 1.2611 20.1780 16.0514
765 1 0.0000 20.1780 16.9432
766 1 6.3056 0.0000 19.6184
767 1 8.8279 0.0000 19.6184
768 1 10.0890 1.2611 17.8350
769 1 6.3056 1.2612 18.7267
770 1 8.8279 1.2612 18.7267
771 1 7.5668 1.2612 17.8350
772 1 8.8278 2.5223 19.6184
773 1 8.8279 3.7834 18.7267
774 1 10.0890 3.7835 17.8350
775 1 1.2611 0.0000 19.6184
776 1 3.7834 0.0001 19.6184
777 1 5.0444 1.2612 17.8350
778 1 1.2611 1.2612 18.7267
779 1 3.7834 1.2612 18.7267
780 1 2.5223 1.2612 17.8350
781 1 3.7833 2.5223 19.6184
782 1 6.3056 2.5224 19.6184
783 1 7.5667 3.7834 17.8350
784 1 3.7834 3.7834 18.7267
785 1 6.3056 3.7834 18.7267
786 1 5.0445 3.7835 17.8350
787 1 6.3056 5.0445 19.6184
788 1 8.8279 5.0446 19.6184
789 1 10.0890 6.3057 17.8350
790 1 6.3056 6.3057 18.7267
791 1 8.8279 6.3057 18.7267
792 1 7.5668 6.3057 17.8350
793 1 8.8279 7.5669 19.6184
794 1 8.8279 8.8279 18.7267
795 1 10.0890 8.8280 17.8350
796 1 0.0000 1.2611 17.8350
797 1 1.2612 2.5223 19.6184
798 1 2.5223 3.7834 17.8350
799 1 1.2611 3.7834 18.7267
800 1 0.0000 3.7835 17.8350
801 1 1.2611 5.0445 19.6184
802 1 3.7834 5.0445 19.6184
803 1 5.0445 6.3056 17.8350
804 1 3.7834 6.3057 18.7267
805 1 2.5223 6.3057 17.8350
806 1 3.7833 7.5668 19.6184
807 1 6.3057 7.5668 19.6184
808 1 7.5668 8.8279 17.8350
809 1 6.3056 8.8279 18.7267
810 1 5.0445 8.8280 17.8350
811 1 6.3056 10.0891 19.6184
812 1 8.8279 10.0890 19.6184
813 1 10.0890 11.3501 17.8350
814 1 8.8279 11.3502 18.7267
815 1 7.5668 11.3502 17.8350
816 1 8.8278 12.6113 19.6184
817 1 10.0890 13.8725 17.8350
818 1 0.0000 6.3056 17.8350
819 1 1.2611 6.3057 18.7267
820 1 1.2612 7.5668 19.6184
821 1 2.5223 8.8279 17.8350
822 1 1.2611 8.8279 18.7267
823 1 0.0000 8.8280 17.8350
824 1 1.2611 10.0890 19.6184
825 1 3.7834 8.8279 18.7267
826 1 3.7834 10.0890 19.6184
827 1 5.0446 11.3502 17.8350
828 1 3.7834 11.3502 18.7267
829 1 2.5223 11.3502 17.8350
830 1 3.7834 12.6114 19.6184
831 1 6.3056 11.3502 18.7267
832 1 6.3057 12.6113 19.6184
833 1 7.5668 13.8724 17.8350
834 1 6.3056 13.8724 18.7267
835 1 5.0445 13.8725 17.8350
836 1 6.3056 15.1335 19.6184
837 1 8.8279 13.8724 18.7267
838 1 8.8279 15.1335 19.6184
839 1 10.0890 16.3946 17.8350
840 1 8.8279 16.3947 18.7267
841 1 7.5668 16.3947 17.8350
842 1 8.8278 17.6558 19.6184
843 1 10.0890 18.9170 17.8350
844 1 0.0000 11.3501 17.8350
845 1 1.2611 11.3502 18.7267
846 1 1.2612 12.6113 19.6184
847 1 2.5223 13.8724 17.8350
848 1 1.2611 13.8724 18.7267
849 1 0.0000 13.8725 17.8350
850 1 1.2611 15.1336 19.6184
851 1 3.7834 13.8724 18.7267
852 1 3.7834 15.1335 19.6184
853 1 5.0445 16.3946 17.8350
854 1 3.7834 16.3947 18.7267
855 1 2.5223 16.3947 17.8350
856 1 3.7833 17.6558 19.6184
857 1 6.3056 16.3947 18.7267
858 1 6.3057 17.6558 19.6184
859 1 7.5668 18.9169 17.8350
860 1 6.3056 18.9169 18.7267
861 1 5.0445 18.9170 17.8350
862 1 6.3056 20.1780 19.6184
863 1 8.8279 18.9169 18.7267
864 1 8.8279 20.1780 19.6184
865 1 0.0001 16.3947 17.8350
866 1 1.2611 16.3947 18.7267
867 1 1.2612 17.6558 19.6184
868 1 2.5223 18.9169 17.8350
869 1 1.2611 18.9169 18.7267
870 1 3.7834 18.9169 18.7267
871 1 3.7834 20.1780 19.6184
872 1 0.0000 18.9170 17.8350
873 1 1.2611 20.1780 19.6184
874 1 10.0890 0.0000 20.5102
875 1 5.0445 0.0000 20.5102
876 1 6.3056 0.0000 23.1854
877 1 8.8279 0.0000 23.1854
878 1 10.0890 1.2611 21.4020
879 1 7.5668 0.0000 20.5102
880 1 6.3056 1.2612 22.2937
881 1 8.8279 1.2612 22.2937
882 1 7.5668 2.5223 20.5102
883 1 7.5668 1.2612 21.4020
884 1 8.8278 2.5223 23.1854
885 1 10.0890 2.5223 20.5102
886 1 8.8279 3.7834 22.2937
887 1 10.0890 5.0445 20.5102
888 1 10.0890 3.7835 21.4020
889 1 0.0000 0.0000 20.5102
890 1 1.2611 0.0000 23.1854
891 1 3.7834 0.0001 23.1854
892 1 5.0444 1.2612 21.4020
893 1 2.5223 0.0000 20.5102
894 1 1.2611 1.2612 22.2937
895 1 3.7834 1.2612 22.2937
896 1 2.5223 2.5223 20.5102
897 1 2.5223 1.2612 21.4020
898 1 3.7833 2.5223 23.1854
899 1 6.3056 2.5224 23.1854
900 1 7.5667 3.7834 21.4020
901 1 5.0445 2.5223 20.5102
902 1 3.7834 3.7834 22.2937
903 1 6.3056 3.7834 22.2937
904 1 5.0445 5.0445 20.5102
905 1 5.0445 3.7835 21.4020
906 1 6.3056 5.0445 23.1854
907 1 8.8279 5.0446 23.1854
908 1 10.0890 6.3057 21.4020
909 1 7.5668 5.0445 20.5102
910 1 6.3056 6.3057 22.2937
911 1 8.8279 6.3057 22.2937
912 1 7.5668 7.5668 20.5102
913 1 7.5668 6.3057 21.4020
914 1 8.8279 7.5669 23.1854
915 1 10.0890 7.5668 20.5102
916 1 8.8279 8.8279 22.2937
917 1 10.0890 10.0890 20.5102
918 1 10.0890 8.8280 21.4020
919 1 0.0000 1.2611 21.4020
920 1 1.2612 2.5223 23.1854
921 1 2.5223 3.7834 21.4020
922 1 0.0000 2.5223 20.5102
923 1 1.2611 3.7834 22.2937
924 1 0.0000 3.7835 21.4020
925 1 1.2611 5.0445 23.1854
926 1 3.7834 5.0445 23.1854
927 1 5.0445 6.3056 21.4020
928 1 2.5223 5.0445 20.5102
929 1 3.7834 6.3057 22.2937
930 1 2.5223 6.3057 21.4020
931 1 3.7833 7.5668 23.1854
932 1 6.3057 7.5668 23.1854
933 1 7.5668 8.8279 21.4020
934 1 5.0445 7.5668 20.5102
935 1 6.3056 8.8279 22.2937
936 1 5.0445 8.8280 21.4020
937 1 6.3056 10.0891 23.1854
938 1 8.8279 10.0890 23.1854
939 1 10.0890 11.3501 21.4020
940 1 7.5668 10.0890 20.5102
941 1 8.8279 11.3502 22.2937
942 1 7.5668 11.3502 21.4020
943 1 8.8278 12.6113 23.1854
944 1 10.0890 12.6113 20.5102
945 1 10.0890 13.8725 21.4020
946 1 0.0000 5.0445 20.5102
947 1 0.0000 6.3056 21.4020
948 1 1.2611 6.3057 22.2937
949 1 2.5223 7.5668 20.5102
950 1 1.2612 7.5668 23.1854
951 1 2.5223 8.8279 21.4020
952 1 0.0000 7.5668 20.5102
953 1 1.2611 8.8279 22.2937
954 1 0.0000 8.8280 21.4020
955 1 1.2611 10.0890 23.1854
956 1 3.7834 8.8279 22.2937
957 1 5.0445 10.0890 20.5102
958 1 3.7834 10.0890 23.1854
959 1 5.0446 11.3502 21.4020
960 1 2.5223 10.0890 20.5102
961 1 3.7834 11.3502 22.2937
962 1 2.5223 11.3502 21.4020
963 1 3.7834 12.6114 23.1854
964 1 6.3056 11.3502 22.2937
965 1 7.5668 12.6113 20.5102
966 1 6.3057 12.6113 23.1854
967 1 7.5668 13.8724 21.4020
968 1 5.0445 12.6113 20.5102
969 1 6.3056 13.8724 22.2937
970 1 5.0445 13.8725 21.4020
971 1 6.3056 15.1335 23.1854
972 1 8.8279 13.8724 22.2937
973 1 10.0890 15.1335 20.5102
974 1 8.8279 15.1335 23.1854
975 1 10.0890 16.3946 21.4020
976 1 7.5668 15.1335 20.5102
977 1 8.8279 16.3947 22.2937
978 1 7.5668 16.3947 21.4020
979 1 8.8278 17.6558 23.1854
980 1 10.0890 17.6558 20.5102
981 1 10.0890 18.9170 21.4020
982 1 0.0000 10.0890 20.5102
983 1 0.0000 11.3501 21.4020
984 1 1.2611 11.3502 22.2937
985 1 2.5223 12.6113 20.5102
986 1 1.2612 12.6113 23.1854
987 1 2.5223 13.8724 21.4020
988 1 0.0000 12.6113 20.5102
989 1 1.2611 13.8724 22.2937
990 1 0.0000 13.8725 21.4020
991 1 1.2611 15.1336 23.1854
992 1 3.7834 13.8724 22.2937
993 1 5.0445 15.1335 20.5102
994 1 3.7834 15.1335 23.1854
995 1 5.0445 16.3946 21.4020
996 1 2.5223 15.1335 20.5102
997 1 3.7834 16.3947 22.2937
998 1 2.5223 16.3947 21.4020
999 1 3.7833 17.6558 23.1854
1000 1 6.3056 16.3947 22.2937
1001 1 7.5668 17.6558 20.5102
1002 1 6.3057 17.6558 23.1854
1003 1 7.5668 18.9169 21.4020
1004 1 5.0445 17.6558 20.5102
1005 1 6.3056 18.9169 22.2937
1006 1 5.0445 18.9170 21.4020
1007 1 6.3056 20.1780 23.1854
1008 1 8.8279 18.9169 22.2937
1009 1 10.0890 20.1780 20.5102
1010 1 8.8279 20.1780 23.1854
1011 1 7.5668 20.1780 20.5102
1012 1 0.0000 15.1335 20.5102
1013 1 0.0001 16.3947 21.4020
1014 1 1.2611 16.3947 22.2937
1015 1 2.5223 17.6558 20.5102
1016 1 1.2612 17.6558 23.1854
1017 1 2.5223 18.9169 21.4020
1018 1 0.0000 17.6558 20.5102
1019 1 1.2611 18.9169 22.2937
1020 1 3.7834 18.9169 22.2937
1021 1 5.0445 20.1780 20.5102
1022 1 3.7834 20.1780 23.1854
1023 1 2.5223 20.1780 20.5102
1024 1 0.0000 20.1780 20.5102
1025 1 0.0000 18.9170 21.4020
1026 1 1.2611 20.1780 23.1854
1027 1 10.0890 0.0000 24.0772
1028 1 5.0445 0.0000 24.0772
1029 1 6.3056 0.0000 26.7524
1030 1 8.8279 0.0000 26.7524
1031 1 10.0890 1.2611 24.9690
1032 1 7.5668 0.0000 24.0772
1033 1 6.3056 1.2612 25.8607
1034 1 8.8279 1.2612 25.8607
1035 1 7.5668 2.5223 24.0772
1036 1 7.5668 1.2612 24.9690
1037 1 8.8278 2.5223 26.7524
1038 1 10.0890 2.5223 24.0772
1039 1 8.8279 3.7834 25.8607
1040 1 10.0890 5.0445 24.0772
1041 1 10.0890 3.7835 24.9690
1042 1 0.0000 0.0000 24.0772
1043 1 1.2611 0.0000 26.7524
1044 1 3.7834 0.0001 26.7524
1045 1 5.0444 1.2612 24.9690
1046 1 2.5223 0.0000 24.0772
1047 1 1.2611 1.2612 25.8607
1048 1 3.7834 1.2612 25.8607
1049 1 2.5223 2.5223 24.0772
1050 1 2.5223 1.2612 24.9690
1051 1 3.7833 2.5223 26.7524
1052 1 6.3056 2.5224 26.7524
1053 1 7.5667 3.7834 24.9690
1054 1 5.0445 2.5223 24.0772
1055 1 3.7834 3.7834 25.8607
1056 1 6.3056 3.7834 25.8607
1057 1 5.0445 5.0445 24.0772
1058 1 5.0445 3.7835 24.9690
1059 1 6.3056 5.0445 26.7524