LAMMPS data file from restart file: timestep = 1, procs = 1

1559 atoms

3 atom types

0.0000 18.0037 xlo xhi
0.0000 18.0038 ylo yhi
-50 71.34 zlo zhi

Masses

1 12.01
2 2
3 3

Atoms

1 1 13.1057 0.0000 0.0000
2 1 14.7815 0.6100 1.7836
3 1 16.4576 1.2200 0.0000
4 1 17.6005 0.6870 0.8918
5 1 3.5059 0.3019 1.7836
6 1 5.1819 0.9119 0.0000
7 1 6.3248 0.3790 0.8918
8 1 6.8578 1.5219 1.7836
9 1 8.5338 2.1319 0.0000
10 1 10.8197 1.0660 0.0000
11 1 9.6767 1.5990 0.8918
12 1 9.1438 0.4561 1.7836
13 1 10.2098 2.7419 1.7836
14 1 11.8857 3.3519 0.0000
15 1 14.1715 2.2860 0.0000
16 1 11.9627 0.5330 0.8918
17 1 13.0286 2.8189 0.8918
18 1 12.4957 1.6760 1.7836
19 1 13.5616 3.9618 1.7836
20 1 15.2376 4.5719 0.0000
21 1 17.5234 3.5060 0.0000
22 1 15.3145 1.7530 0.8918
23 1 16.3805 4.0389 0.8918
24 1 15.8476 2.8960 1.7836
25 1 16.9134 5.1818 1.7836
26 1 0.6100 3.0439 0.0000
27 1 2.8959 1.9779 0.0000
28 1 0.6870 0.2249 0.8918
29 1 1.7530 2.5109 0.8918
30 1 1.2200 1.3680 1.7836
31 1 2.2859 3.6539 1.7836
32 1 3.9619 4.2639 0.0000
33 1 6.2478 3.1979 0.0000
34 1 4.0389 1.4449 0.8918
35 1 5.1049 3.7309 0.8918
36 1 4.5719 2.5880 1.7836
37 1 5.6378 4.8739 1.7836
38 1 7.3138 5.4839 0.0000
39 1 9.5997 4.4179 0.0000
40 1 7.3908 2.6649 0.8918
41 1 8.4567 4.9508 0.8918
42 1 7.9238 3.8079 1.7836
43 1 8.9897 6.0939 1.7836
44 1 10.6657 6.7039 0.0000
45 1 12.9515 5.6379 0.0000
46 1 10.7427 3.8849 0.8918
47 1 11.8086 6.1708 0.8918
48 1 11.2757 5.0279 1.7836
49 1 12.3415 7.3138 1.7836
50 1 14.0176 7.9239 0.0000
51 1 16.3034 6.8579 0.0000
52 1 14.0946 5.1049 0.8918
53 1 15.1605 7.3908 0.8918
54 1 14.6276 6.2479 1.7836
55 1 15.6934 8.5338 1.7836
56 1 17.3695 9.1438 0.0000
57 1 17.4464 6.3249 0.8918
58 1 1.6759 5.3298 0.0000
59 1 0.5330 5.8628 0.8918
60 1 0.0000 4.7199 1.7836
61 1 1.0659 7.0057 1.7836
62 1 2.7420 7.6157 0.0000
63 1 5.0278 6.5498 0.0000
64 1 2.8189 4.7968 0.8918
65 1 3.8849 7.0827 0.8918
66 1 3.3519 5.9398 1.7836
67 1 4.4178 8.2256 1.7836
68 1 6.0939 8.8357 0.0000
69 1 8.3798 7.7698 0.0000
70 1 6.1708 6.0168 0.8918
71 1 7.2368 8.3027 0.8918
72 1 6.7038 7.1598 1.7836
73 1 7.7698 9.4457 1.7836
74 1 9.4457 10.0557 0.0000
75 1 11.7315 8.9898 0.0000
76 1 9.5227 7.2368 0.8918
77 1 10.5886 9.5227 0.8918
78 1 10.0557 8.3798 1.7836
79 1 11.1216 10.6656 1.7836
80 1 12.7976 11.2756 0.0000
81 1 15.0834 10.2098 0.0000
82 1 12.8746 8.4568 0.8918
83 1 13.9405 10.7427 0.8918
84 1 13.4076 9.5998 1.7836
85 1 14.4735 11.8856 1.7836
86 1 16.1495 12.4956 0.0000
87 1 16.2265 9.6767 0.8918
88 1 17.2924 11.9627 0.8918
89 1 16.7595 10.8198 1.7836
90 1 17.8254 13.1056 1.7836
91 1 0.4559 8.6817 0.0000
92 1 1.5220 10.9676 0.0000
93 1 3.8078 9.9017 0.0000
94 1 1.5989 8.1487 0.8918
95 1 2.6649 10.4346 0.8918
96 1 2.1319 9.2917 1.7836
97 1 3.1978 11.5775 1.7836
98 1 4.8739 12.1876 0.0000
99 1 7.1598 11.1217 0.0000
100 1 4.9508 9.3687 0.8918
101 1 6.0168 11.6546 0.8918
102 1 5.4838 10.5117 1.7836
103 1 6.5498 12.7975 1.7836
104 1 8.2258 13.4075 0.0000
105 1 10.5116 12.3417 0.0000
106 1 8.3027 10.5887 0.8918
107 1 9.3687 12.8746 0.8918
108 1 8.8357 11.7317 1.7836
109 1 9.9016 14.0175 1.7836
110 1 11.5776 14.6275 0.0000
111 1 13.8634 13.5616 0.0000
112 1 11.6546 11.8086 0.8918
113 1 12.7205 14.0946 0.8918
114 1 12.1876 12.9517 1.7836
115 1 13.2535 15.2375 1.7836
116 1 14.9295 15.8475 0.0000
117 1 17.2153 14.7816 0.0000
118 1 15.0065 13.0286 0.8918
119 1 16.0724 15.3146 0.8918
120 1 15.5395 14.1717 1.7836
121 1 16.6054 16.4575 1.7836
122 1 0.3020 14.3195 0.0000
123 1 2.5878 13.2536 0.0000
124 1 0.3790 11.5006 0.8918
125 1 1.4449 13.7865 0.8918
126 1 0.9120 12.6436 1.7836
127 1 1.9778 14.9294 1.7836
128 1 3.6539 15.5394 0.0000
129 1 5.9398 14.4736 0.0000
130 1 3.7308 12.7206 0.8918
131 1 4.7968 15.0065 0.8918
132 1 4.2638 13.8636 1.7836
133 1 5.3298 16.1494 1.7836
134 1 7.0058 16.7594 0.0000
135 1 9.2916 15.6935 0.0000
136 1 7.0827 13.9405 0.8918
137 1 8.1487 16.2265 0.8918
138 1 7.6157 15.0836 1.7836
139 1 8.6816 17.3694 1.7836
140 1 12.6435 16.9135 0.0000
141 1 10.4346 15.1605 0.8918
142 1 11.5006 17.4465 0.8918
143 1 10.9676 16.3036 1.7836
144 1 13.7865 16.3805 0.8918
145 1 14.3195 17.5235 1.7836
146 1 17.1384 17.6005 0.8918
147 1 1.3678 16.6054 0.0000
148 1 0.2249 17.1384 0.8918
149 1 4.7198 17.8255 0.0000
150 1 2.5108 16.0724 0.8918
151 1 3.0439 17.2155 1.7836
152 1 5.8627 17.2924 0.8918
153 1 13.1057 0.0000 3.5670
154 1 14.7815 0.6100 5.3506
155 1 15.9245 0.0771 2.6753
156 1 16.4576 1.2200 3.5670
157 1 17.6005 0.6870 4.4588
158 1 3.5059 0.3019 5.3506
159 1 5.1819 0.9119 3.5670
160 1 6.3248 0.3790 4.4588
161 1 6.8578 1.5219 5.3506
162 1 8.0008 0.9890 2.6753
163 1 8.5338 2.1319 3.5670
164 1 10.8197 1.0660 3.5670
165 1 9.6767 1.5990 4.4588
166 1 9.1438 0.4561 5.3506
167 1 10.2098 2.7419 5.3506
168 1 11.3527 2.2090 2.6753
169 1 13.6386 1.1430 2.6753
170 1 11.8857 3.3519 3.5670
171 1 14.1715 2.2860 3.5670
172 1 11.9627 0.5330 4.4588
173 1 13.0286 2.8189 4.4588
174 1 12.4957 1.6760 5.3506
175 1 13.5616 3.9618 5.3506
176 1 14.7046 3.4289 2.6753
177 1 16.9905 2.3630 2.6753
178 1 15.2376 4.5719 3.5670
179 1 17.5234 3.5060 3.5670
180 1 15.3145 1.7530 4.4588
181 1 16.3805 4.0389 4.4588
182 1 15.8476 2.8960 5.3506
183 1 16.9134 5.1818 5.3506
184 1 0.0770 1.9009 2.6753
185 1 2.3630 0.8349 2.6753
186 1 0.6100 3.0439 3.5670
187 1 2.8959 1.9779 3.5670
188 1 0.6870 0.2249 4.4588
189 1 1.7530 2.5109 4.4588
190 1 1.2200 1.3680 5.3506
191 1 2.2859 3.6539 5.3506
192 1 3.4289 3.1209 2.6753
193 1 5.7149 2.0549 2.6753
194 1 3.9619 4.2639 3.5670
195 1 6.2478 3.1979 3.5670
196 1 4.0389 1.4449 4.4588
197 1 5.1049 3.7309 4.4588
198 1 4.5719 2.5880 5.3506
199 1 5.6378 4.8739 5.3506
200 1 6.7808 4.3409 2.6753
201 1 9.0667 3.2749 2.6753
202 1 7.3138 5.4839 3.5670
203 1 9.5997 4.4179 3.5670
204 1 7.3908 2.6649 4.4588
205 1 8.4567 4.9508 4.4588
206 1 7.9238 3.8079 5.3506
207 1 8.9897 6.0939 5.3506
208 1 10.1327 5.5608 2.6753
209 1 12.4186 4.4949 2.6753
210 1 10.6657 6.7039 3.5670
211 1 12.9515 5.6379 3.5670
212 1 10.7427 3.8849 4.4588
213 1 11.8086 6.1708 4.4588
214 1 11.2757 5.0279 5.3506
215 1 12.3415 7.3138 5.3506
216 1 13.4846 6.7808 2.6753
217 1 15.7705 5.7149 2.6753
218 1 14.0176 7.9239 3.5670
219 1 16.3034 6.8579 3.5670
220 1 14.0946 5.1049 4.4588
221 1 15.1605 7.3908 4.4588
222 1 14.6276 6.2479 5.3506
223 1 15.6934 8.5338 5.3506
224 1 16.8365 8.0008 2.6753
225 1 17.3695 9.1438 3.5670
226 1 17.4464 6.3249 4.4588
227 1 1.1430 4.1868 2.6753
228 1 1.6759 5.3298 3.5670
229 1 0.5330 5.8628 4.4588
230 1 0.0000 4.7199 5.3506
231 1 1.0659 7.0057 5.3506
232 1 2.2089 6.4727 2.6753
233 1 4.4949 5.4068 2.6753
234 1 2.7420 7.6157 3.5670
235 1 5.0278 6.5498 3.5670
236 1 2.8189 4.7968 4.4588
237 1 3.8849 7.0827 4.4588
238 1 3.3519 5.9398 5.3506
239 1 4.4178 8.2256 5.3506
240 1 5.5608 7.6927 2.6753
241 1 7.8467 6.6268 2.6753
242 1 6.0939 8.8357 3.5670
243 1 8.3798 7.7698 3.5670
244 1 6.1708 6.0168 4.4588
245 1 7.2368 8.3027 4.4588
246 1 6.7038 7.1598 5.3506
247 1 7.7698 9.4457 5.3506
248 1 8.9127 8.9127 2.6753
249 1 11.1986 7.8468 2.6753
250 1 9.4457 10.0557 3.5670
251 1 11.7315 8.9898 3.5670
252 1 9.5227 7.2368 4.4588
253 1 10.5886 9.5227 4.4588
254 1 10.0557 8.3798 5.3506
255 1 11.1216 10.6656 5.3506
256 1 12.2646 10.1327 2.6753
257 1 14.5505 9.0668 2.6753
258 1 12.7976 11.2756 3.5670
259 1 15.0834 10.2098 3.5670
260 1 12.8746 8.4568 4.4588
261 1 13.9405 10.7427 4.4588
262 1 13.4076 9.5998 5.3506
263 1 14.4735 11.8856 5.3506
264 1 15.6165 11.3527 2.6753
265 1 16.1495 12.4956 3.5670
266 1 16.2265 9.6767 4.4588
267 1 17.2924 11.9627 4.4588
268 1 16.7595 10.8198 5.3506
269 1 17.8254 13.1056 5.3506
270 1 0.4559 8.6817 3.5670
271 1 0.9889 9.8246 2.6753
272 1 3.2749 8.7587 2.6753
273 1 1.5220 10.9676 3.5670
274 1 3.8078 9.9017 3.5670
275 1 1.5989 8.1487 4.4588
276 1 2.6649 10.4346 4.4588
277 1 2.1319 9.2917 5.3506
278 1 3.1978 11.5775 5.3506
279 1 4.3408 11.0446 2.6753
280 1 6.6268 9.9787 2.6753
281 1 4.8739 12.1876 3.5670
282 1 7.1598 11.1217 3.5670
283 1 4.9508 9.3687 4.4588
284 1 6.0168 11.6546 4.4588
285 1 5.4838 10.5117 5.3506
286 1 6.5498 12.7975 5.3506
287 1 7.6927 12.2646 2.6753
288 1 9.9786 11.1987 2.6753
289 1 8.2258 13.4075 3.5670
290 1 10.5116 12.3417 3.5670
291 1 8.3027 10.5887 4.4588
292 1 9.3687 12.8746 4.4588
293 1 8.8357 11.7317 5.3506
294 1 9.9016 14.0175 5.3506
295 1 11.0446 13.4846 2.6753
296 1 13.3305 12.4186 2.6753
297 1 11.5776 14.6275 3.5670
298 1 13.8634 13.5616 3.5670
299 1 11.6546 11.8086 4.4588
300 1 12.7205 14.0946 4.4588
301 1 12.1876 12.9517 5.3506
302 1 13.2535 15.2375 5.3506
303 1 14.3965 14.7046 2.6753
304 1 16.6824 13.6386 2.6753
305 1 14.9295 15.8475 3.5670
306 1 17.2153 14.7816 3.5670
307 1 15.0065 13.0286 4.4588
308 1 16.0724 15.3146 4.4588
309 1 15.5395 14.1717 5.3506
310 1 16.6054 16.4575 5.3506
311 1 17.7484 15.9246 2.6753
312 1 2.0549 12.1106 2.6753
313 1 0.3020 14.3195 3.5670
314 1 2.5878 13.2536 3.5670
315 1 0.3790 11.5006 4.4588
316 1 1.4449 13.7865 4.4588
317 1 0.9120 12.6436 5.3506
318 1 1.9778 14.9294 5.3506
319 1 3.1208 14.3965 2.6753
320 1 5.4068 13.3306 2.6753
321 1 3.6539 15.5394 3.5670
322 1 5.9398 14.4736 3.5670
323 1 3.7308 12.7206 4.4588
324 1 4.7968 15.0065 4.4588
325 1 4.2638 13.8636 5.3506
326 1 5.3298 16.1494 5.3506
327 1 6.4727 15.6165 2.6753
328 1 8.7587 14.5505 2.6753
329 1 7.0058 16.7594 3.5670
330 1 9.2916 15.6935 3.5670
331 1 7.0827 13.9405 4.4588
332 1 8.1487 16.2265 4.4588
333 1 7.6157 15.0836 5.3506
334 1 8.6816 17.3694 5.3506
335 1 9.8246 16.8365 2.6753
336 1 12.1105 15.7705 2.6753
337 1 12.6435 16.9135 3.5670
338 1 10.4346 15.1605 4.4588
339 1 11.5006 17.4465 4.4588
340 1 10.9676 16.3036 5.3506
341 1 15.4624 16.9905 2.6753
342 1 13.7865 16.3805 4.4588
343 1 14.3195 17.5235 5.3506
344 1 17.1384 17.6005 4.4588
345 1 0.8349 15.4624 2.6753
346 1 1.3678 16.6054 3.5670
347 1 0.2249 17.1384 4.4588
348 1 1.9009 17.7484 2.6753
349 1 4.1868 16.6824 2.6753
350 1 4.7198 17.8255 3.5670
351 1 2.5108 16.0724 4.4588
352 1 3.0439 17.2155 5.3506
353 1 5.8627 17.2924 4.4588
354 1 13.1057 0.0000 7.1341
355 1 14.7815 0.6100 8.9176
356 1 15.9245 0.0771 6.2423
357 1 16.4576 1.2200 7.1341
358 1 17.6005 0.6870 8.0258
359 1 3.5059 0.3019 8.9176
360 1 5.1819 0.9119 7.1341
361 1 6.3248 0.3790 8.0258
362 1 6.8578 1.5219 8.9176
363 1 8.0008 0.9890 6.2423
364 1 8.5338 2.1319 7.1341
365 1 10.8197 1.0660 7.1341
366 1 9.6767 1.5990 8.0258
367 1 9.1438 0.4561 8.9176
368 1 10.2098 2.7419 8.9176
369 1 11.3527 2.2090 6.2423
370 1 13.6386 1.1430 6.2423
371 1 11.8857 3.3519 7.1341
372 1 14.1715 2.2860 7.1341
373 1 11.9627 0.5330 8.0258
374 1 13.0286 2.8189 8.0258
375 1 12.4957 1.6760 8.9176
376 1 13.5616 3.9618 8.9176
377 1 14.7046 3.4289 6.2423
378 1 16.9905 2.3630 6.2423
379 1 15.2376 4.5719 7.1341
380 1 17.5234 3.5060 7.1341
381 1 15.3145 1.7530 8.0258
382 1 16.3805 4.0389 8.0258
383 1 15.8476 2.8960 8.9176
384 1 16.9134 5.1818 8.9176
385 1 0.0770 1.9009 6.2423
386 1 2.3630 0.8349 6.2423
387 1 0.6100 3.0439 7.1341
388 1 2.8959 1.9779 7.1341
389 1 0.6870 0.2249 8.0258
390 1 1.7530 2.5109 8.0258
391 1 1.2200 1.3680 8.9176
392 1 2.2859 3.6539 8.9176
393 1 3.4289 3.1209 6.2423
394 1 5.7149 2.0549 6.2423
395 1 3.9619 4.2639 7.1341
396 1 6.2478 3.1979 7.1341
397 1 4.0389 1.4449 8.0258
398 1 5.1049 3.7309 8.0258
399 1 4.5719 2.5880 8.9176
400 1 5.6378 4.8739 8.9176
401 1 6.7808 4.3409 6.2423
402 1 9.0667 3.2749 6.2423
403 1 7.3138 5.4839 7.1341
404 1 9.5997 4.4179 7.1341
405 1 7.3908 2.6649 8.0258
406 1 8.4567 4.9508 8.0258
407 1 7.9238 3.8079 8.9176
408 1 8.9897 6.0939 8.9176
409 1 10.1327 5.5608 6.2423
410 1 12.4186 4.4949 6.2423
411 1 10.6657 6.7039 7.1341
412 1 12.9515 5.6379 7.1341
413 1 10.7427 3.8849 8.0258
414 1 11.8086 6.1708 8.0258
415 1 11.2757 5.0279 8.9176
416 1 12.3415 7.3138 8.9176
417 1 13.4846 6.7808 6.2423
418 1 15.7705 5.7149 6.2423
419 1 14.0176 7.9239 7.1341
420 1 16.3034 6.8579 7.1341
421 1 14.0946 5.1049 8.0258
422 1 15.1605 7.3908 8.0258
423 1 14.6276 6.2479 8.9176
424 1 15.6934 8.5338 8.9176
425 1 16.8365 8.0008 6.2423
426 1 17.3695 9.1438 7.1341
427 1 17.4464 6.3249 8.0258
428 1 1.1430 4.1868 6.2423
429 1 1.6759 5.3298 7.1341
430 1 0.5330 5.8628 8.0258
431 1 0.0000 4.7199 8.9176
432 1 1.0659 7.0057 8.9176
433 1 2.2089 6.4727 6.2423
434 1 4.4949 5.4068 6.2423
435 1 2.7420 7.6157 7.1341
436 1 5.0278 6.5498 7.1341
437 1 2.8189 4.7968 8.0258
438 1 3.8849 7.0827 8.0258
439 1 3.3519 5.9398 8.9176
440 1 4.4178 8.2256 8.9176
441 1 5.5608 7.6927 6.2423
442 1 7.8467 6.6268 6.2423
443 1 6.0939 8.8357 7.1341
444 1 8.3798 7.7698 7.1341
445 1 6.1708 6.0168 8.0258
446 1 7.2368 8.3027 8.0258
447 1 6.7038 7.1598 8.9176
448 1 7.7698 9.4457 8.9176
449 1 8.9127 8.9127 6.2423
450 1 11.1986 7.8468 6.2423
451 1 9.4457 10.0557 7.1341
452 1 11.7315 8.9898 7.1341
453 1 9.5227 7.2368 8.0258
454 1 10.5886 9.5227 8.0258
455 1 10.0557 8.3798 8.9176
456 1 11.1216 10.6656 8.9176
457 1 12.2646 10.1327 6.2423
458 1 14.5505 9.0668 6.2423
459 1 12.7976 11.2756 7.1341
460 1 15.0834 10.2098 7.1341
461 1 12.8746 8.4568 8.0258
462 1 13.9405 10.7427 8.0258
463 1 13.4076 9.5998 8.9176
464 1 14.4735 11.8856 8.9176
465 1 15.6165 11.3527 6.2423
466 1 16.1495 12.4956 7.1341
467 1 16.2265 9.6767 8.0258
468 1 17.2924 11.9627 8.0258
469 1 16.7595 10.8198 8.9176
470 1 17.8254 13.1056 8.9176
471 1 0.4559 8.6817 7.1341
472 1 0.9889 9.8246 6.2423
473 1 3.2749 8.7587 6.2423
474 1 1.5220 10.9676 7.1341
475 1 3.8078 9.9017 7.1341
476 1 1.5989 8.1487 8.0258
477 1 2.6649 10.4346 8.0258
478 1 2.1319 9.2917 8.9176
479 1 3.1978 11.5775 8.9176
480 1 4.3408 11.0446 6.2423
481 1 6.6268 9.9787 6.2423
482 1 4.8739 12.1876 7.1341
483 1 7.1598 11.1217 7.1341
484 1 4.9508 9.3687 8.0258
485 1 6.0168 11.6546 8.0258
486 1 5.4838 10.5117 8.9176
487 1 6.5498 12.7975 8.9176
488 1 7.6927 12.2646 6.2423
489 1 9.9786 11.1987 6.2423
490 1 8.2258 13.4075 7.1341
491 1 10.5116 12.3417 7.1341
492 1 8.3027 10.5887 8.0258
493 1 9.3687 12.8746 8.0258
494 1 8.8357 11.7317 8.9176
495 1 9.9016 14.0175 8.9176
496 1 11.0446 13.4846 6.2423
497 1 13.3305 12.4186 6.2423
498 1 11.5776 14.6275 7.1341
499 1 13.8634 13.5616 7.1341
500 1 11.6546 11.8086 8.0258
501 1 12.7205 14.0946 8.0258
502 1 12.1876 12.9517 8.9176
503 1 13.2535 15.2375 8.9176
504 1 14.3965 14.7046 6.2423
505 1 16.6824 13.6386 6.2423
506 1 14.9295 15.8475 7.1341
507 1 17.2153 14.7816 7.1341
508 1 15.0065 13.0286 8.0258
509 1 16.0724 15.3146 8.0258
510 1 15.5395 14.1717 8.9176
511 1 16.6054 16.4575 8.9176
512 1 17.7484 15.9246 6.2423
513 1 2.0549 12.1106 6.2423
514 1 0.3020 14.3195 7.1341
515 1 2.5878 13.2536 7.1341
516 1 0.3790 11.5006 8.0258
517 1 1.4449 13.7865 8.0258
518 1 0.9120 12.6436 8.9176
519 1 1.9778 14.9294 8.9176
520 1 3.1208 14.3965 6.2423
521 1 5.4068 13.3306 6.2423
522 1 3.6539 15.5394 7.1341
523 1 5.9398 14.4736 7.1341
524 1 3.7308 12.7206 8.0258
525 1 4.7968 15.0065 8.0258
526 1 4.2638 13.8636 8.9176
527 1 5.3298 16.1494 8.9176
528 1 6.4727 15.6165 6.2423
529 1 8.7587 14.5505 6.2423
530 1 7.0058 16.7594 7.1341
531 1 9.2916 15.6935 7.1341
532 1 7.0827 13.9405 8.0258
533 1 8.1487 16.2265 8.0258
534 1 7.6157 15.0836 8.9176
535 1 8.6816 17.3694 8.9176
536 1 9.8246 16.8365 6.2423
537 1 12.1105 15.7705 6.2423
538 1 12.6435 16.9135 7.1341
539 1 10.4346 15.1605 8.0258
540 1 11.5006 17.4465 8.0258
541 1 10.9676 16.3036 8.9176
542 1 15.4624 16.9905 6.2423
543 1 13.7865 16.3805 8.0258
544 1 14.3195 17.5235 8.9176
545 1 17.1384 17.6005 8.0258
546 1 0.8349 15.4624 6.2423
547 1 1.3678 16.6054 7.1341
548 1 0.2249 17.1384 8.0258
549 1 1.9009 17.7484 6.2423
550 1 4.1868 16.6824 6.2423
551 1 4.7198 17.8255 7.1341
552 1 2.5108 16.0724 8.0258
553 1 3.0439 17.2155 8.9176
554 1 5.8627 17.2924 8.0258
555 1 13.1057 0.0000 10.7010
556 1 15.9245 0.0771 9.8093
557 1 16.4576 1.2200 10.7010
558 1 17.6005 0.6870 11.5928
559 1 5.1819 0.9119 10.7010
560 1 6.3248 0.3790 11.5928
561 1 8.0008 0.9890 9.8093
562 1 8.5338 2.1319 10.7010
563 1 10.8197 1.0660 10.7010
564 1 9.6767 1.5990 11.5928
565 1 11.3527 2.2090 9.8093
566 1 13.6386 1.1430 9.8093
567 1 11.8857 3.3519 10.7010
568 1 14.1715 2.2860 10.7010
569 1 11.9627 0.5330 11.5928
570 1 13.0286 2.8189 11.5928
571 1 14.7046 3.4289 9.8093
572 1 16.9905 2.3630 9.8093
573 1 15.2376 4.5719 10.7010
574 1 17.5234 3.5060 10.7010
575 1 15.3145 1.7530 11.5928
576 1 16.3805 4.0389 11.5928
577 1 0.0770 1.9009 9.8093
578 1 2.3630 0.8349 9.8093
579 1 0.6100 3.0439 10.7010
580 1 2.8959 1.9779 10.7010
581 1 0.6870 0.2249 11.5928
582 1 1.7530 2.5109 11.5928
583 1 3.4289 3.1209 9.8093
584 1 5.7149 2.0549 9.8093
585 1 3.9619 4.2639 10.7010
586 1 6.2478 3.1979 10.7010
587 1 4.0389 1.4449 11.5928
588 1 5.1049 3.7309 11.5928
589 1 6.7808 4.3409 9.8093
590 1 9.0667 3.2749 9.8093
591 1 7.3138 5.4839 10.7010
592 1 9.5997 4.4179 10.7010
593 1 7.3908 2.6649 11.5928
594 1 8.4567 4.9508 11.5928
595 1 10.1327 5.5608 9.8093
596 1 12.4186 4.4949 9.8093
597 1 10.6657 6.7039 10.7010
598 1 12.9515 5.6379 10.7010
599 1 10.7427 3.8849 11.5928
600 1 11.8086 6.1708 11.5928
601 1 13.4846 6.7808 9.8093
602 1 15.7705 5.7149 9.8093
603 1 14.0176 7.9239 10.7010
604 1 16.3034 6.8579 10.7010
605 1 14.0946 5.1049 11.5928
606 1 15.1605 7.3908 11.5928
607 1 16.8365 8.0008 9.8093
608 1 17.3695 9.1438 10.7010
609 1 17.4464 6.3249 11.5928
610 1 1.1430 4.1868 9.8093
611 1 1.6759 5.3298 10.7010
612 1 0.5330 5.8628 11.5928
613 1 2.2089 6.4727 9.8093
614 1 4.4949 5.4068 9.8093
615 1 2.7420 7.6157 10.7010
616 1 5.0278 6.5498 10.7010
617 1 2.8189 4.7968 11.5928
618 1 3.8849 7.0827 11.5928
619 1 5.5608 7.6927 9.8093
620 1 7.8467 6.6268 9.8093
621 1 6.0939 8.8357 10.7010
622 1 8.3798 7.7698 10.7010
623 1 6.1708 6.0168 11.5928
624 1 7.2368 8.3027 11.5928
625 1 8.9127 8.9127 9.8093
626 1 11.1986 7.8468 9.8093
627 1 9.4457 10.0557 10.7010
628 1 11.7315 8.9898 10.7010
629 1 9.5227 7.2368 11.5928
630 1 10.5886 9.5227 11.5928
631 1 12.2646 10.1327 9.8093
632 1 14.5505 9.0668 9.8093
633 1 12.7976 11.2756 10.7010
634 1 15.0834 10.2098 10.7010
635 1 12.8746 8.4568 11.5928
636 1 13.9405 10.7427 11.5928
637 1 15.6165 11.3527 9.8093
638 1 16.1495 12.4956 10.7010
639 1 16.2265 9.6767 11.5928
640 1 17.2924 11.9627 11.5928
641 1 0.4559 8.6817 10.7010
642 1 0.9889 9.8246 9.8093
643 1 3.2749 8.7587 9.8093
644 1 1.5220 10.9676 10.7010
645 1 3.8078 9.9017 10.7010
646 1 1.5989 8.1487 11.5928
647 1 2.6649 10.4346 11.5928
648 1 4.3408 11.0446 9.8093
649 1 6.6268 9.9787 9.8093
650 1 4.8739 12.1876 10.7010
651 1 7.1598 11.1217 10.7010
652 1 4.9508 9.3687 11.5928
653 1 6.0168 11.6546 11.5928
654 1 7.6927 12.2646 9.8093
655 1 9.9786 11.1987 9.8093
656 1 8.2258 13.4075 10.7010
657 1 10.5116 12.3417 10.7010
658 1 8.3027 10.5887 11.5928
659 1 9.3687 12.8746 11.5928
660 1 11.0446 13.4846 9.8093
661 1 13.3305 12.4186 9.8093
662 1 11.5776 14.6275 10.7010
663 1 13.8634 13.5616 10.7010
664 1 11.6546 11.8086 11.5928
665 1 12.7205 14.0946 11.5928
666 1 14.3965 14.7046 9.8093
667 1 16.6824 13.6386 9.8093
668 1 14.9295 15.8475 10.7010
669 1 17.2153 14.7816 10.7010
670 1 15.0065 13.0286 11.5928
671 1 16.0724 15.3146 11.5928
672 1 17.7484 15.9246 9.8093
673 1 2.0549 12.1106 9.8093
674 1 0.3020 14.3195 10.7010
675 1 2.5878 13.2536 10.7010
676 1 0.3790 11.5006 11.5928
677 1 1.4449 13.7865 11.5928
678 1 3.1208 14.3965 9.8093
679 1 5.4068 13.3306 9.8093
680 1 3.6539 15.5394 10.7010
681 1 5.9398 14.4736 10.7010
682 1 3.7308 12.7206 11.5928
683 1 4.7968 15.0065 11.5928
684 1 6.4727 15.6165 9.8093
685 1 8.7587 14.5505 9.8093
686 1 7.0058 16.7594 10.7010
687 1 9.2916 15.6935 10.7010
688 1 7.0827 13.9405 11.5928
689 1 8.1487 16.2265 11.5928
690 1 9.8246 16.8365 9.8093
691 1 12.1105 15.7705 9.8093
692 1 12.6435 16.9135 10.7010
693 1 10.4346 15.1605 11.5928
694 1 11.5006 17.4465 11.5928
695 1 15.4624 16.9905 9.8093
696 1 13.7865 16.3805 11.5928
697 1 17.1384 17.6005 11.5928
698 1 0.8349 15.4624 9.8093
699 1 1.3678 16.6054 10.7010
700 1 0.2249 17.1384 11.5928
701 1 1.9009 17.7484 9.8093
702 1 4.1868 16.6824 9.8093
703 1 4.7198 17.8255 10.7010
704 1 2.5108 16.0724 11.5928
705 1 5.8627 17.2924 11.5928
706 1 13.1057 0.0000 14.2680
707 1 14.7815 0.6100 12.4846
708 1 15.9245 0.0771 13.3763
709 1 16.4576 1.2200 14.2680
710 1 17.6005 0.6870 15.1598
711 1 3.5059 0.3019 12.4846
712 1 5.1819 0.9119 14.2680
713 1 6.8578 1.5219 12.4846
714 1 6.3248 0.3790 15.1598
715 1 8.0008 0.9890 13.3763
716 1 9.1438 0.4561 12.4846
717 1 8.5338 2.1319 14.2680
718 1 10.8197 1.0660 14.2680
719 1 10.2098 2.7419 12.4846
720 1 9.6767 1.5990 15.1598
721 1 11.3527 2.2090 13.3763
722 1 13.6386 1.1430 13.3763
723 1 12.4957 1.6760 12.4846
724 1 11.8857 3.3519 14.2680
725 1 14.1715 2.2860 14.2680
726 1 13.5616 3.9618 12.4846
727 1 11.9627 0.5330 15.1598
728 1 13.0286 2.8189 15.1598
729 1 14.7046 3.4289 13.3763
730 1 16.9905 2.3630 13.3763
731 1 15.8476 2.8960 12.4846
732 1 15.2376 4.5719 14.2680
733 1 17.5234 3.5060 14.2680
734 1 16.9134 5.1818 12.4846
735 1 15.3145 1.7530 15.1598
736 1 16.3805 4.0389 15.1598
737 1 0.0770 1.9009 13.3763
738 1 2.3630 0.8349 13.3763
739 1 1.2200 1.3680 12.4846
740 1 0.6100 3.0439 14.2680
741 1 2.8959 1.9779 14.2680
742 1 2.2859 3.6539 12.4846
743 1 0.6870 0.2249 15.1598
744 1 1.7530 2.5109 15.1598
745 1 3.4289 3.1209 13.3763
746 1 5.7149 2.0549 13.3763
747 1 4.5719 2.5880 12.4846
748 1 3.9619 4.2639 14.2680
749 1 6.2478 3.1979 14.2680
750 1 5.6378 4.8739 12.4846
751 1 4.0389 1.4449 15.1598
752 1 5.1049 3.7309 15.1598
753 1 6.7808 4.3409 13.3763
754 1 9.0667 3.2749 13.3763
755 1 7.9238 3.8079 12.4846
756 1 7.3138 5.4839 14.2680
757 1 9.5997 4.4179 14.2680
758 1 8.9897 6.0939 12.4846
759 1 7.3908 2.6649 15.1598
760 1 8.4567 4.9508 15.1598
761 1 10.1327 5.5608 13.3763
762 1 12.4186 4.4949 13.3763
763 1 11.2757 5.0279 12.4846
764 1 10.6657 6.7039 14.2680
765 1 12.9515 5.6379 14.2680
766 1 12.3415 7.3138 12.4846
767 1 10.7427 3.8849 15.1598
768 1 11.8086 6.1708 15.1598
769 1 13.4846 6.7808 13.3763
770 1 15.7705 5.7149 13.3763
771 1 14.6276 6.2479 12.4846
772 1 14.0176 7.9239 14.2680
773 1 16.3034 6.8579 14.2680
774 1 15.6934 8.5338 12.4846
775 1 14.0946 5.1049 15.1598
776 1 15.1605 7.3908 15.1598
777 1 16.8365 8.0008 13.3763
778 1 17.3695 9.1438 14.2680
779 1 17.4464 6.3249 15.1598
780 1 1.1430 4.1868 13.3763
781 1 0.0000 4.7199 12.4846
782 1 1.6759 5.3298 14.2680
783 1 1.0659 7.0057 12.4846
784 1 0.5330 5.8628 15.1598
785 1 2.2089 6.4727 13.3763
786 1 4.4949 5.4068 13.3763
787 1 3.3519 5.9398 12.4846
788 1 2.7420 7.6157 14.2680
789 1 5.0278 6.5498 14.2680
790 1 4.4178 8.2256 12.4846
791 1 2.8189 4.7968 15.1598
792 1 3.8849 7.0827 15.1598
793 1 5.5608 7.6927 13.3763
794 1 7.8467 6.6268 13.3763
795 1 6.7038 7.1598 12.4846
796 1 6.0939 8.8357 14.2680
797 1 8.3798 7.7698 14.2680
798 1 7.7698 9.4457 12.4846
799 1 6.1708 6.0168 15.1598
800 1 7.2368 8.3027 15.1598
801 1 8.9127 8.9127 13.3763
802 1 11.1986 7.8468 13.3763
803 1 10.0557 8.3798 12.4846
804 1 9.4457 10.0557 14.2680
805 1 11.7315 8.9898 14.2680
806 1 11.1216 10.6656 12.4846
807 1 9.5227 7.2368 15.1598
808 1 10.5886 9.5227 15.1598
809 1 12.2646 10.1327 13.3763
810 1 14.5505 9.0668 13.3763
811 1 13.4076 9.5998 12.4846
812 1 12.7976 11.2756 14.2680
813 1 15.0834 10.2098 14.2680
814 1 14.4735 11.8856 12.4846
815 1 12.8746 8.4568 15.1598
816 1 13.9405 10.7427 15.1598
817 1 15.6165 11.3527 13.3763
818 1 16.7595 10.8198 12.4846
819 1 16.1495 12.4956 14.2680
820 1 17.8254 13.1056 12.4846
821 1 16.2265 9.6767 15.1598
822 1 17.2924 11.9627 15.1598
823 1 0.4559 8.6817 14.2680
824 1 0.9889 9.8246 13.3763
825 1 3.2749 8.7587 13.3763
826 1 2.1319 9.2917 12.4846
827 1 1.5220 10.9676 14.2680
828 1 3.8078 9.9017 14.2680
829 1 3.1978 11.5775 12.4846
830 1 1.5989 8.1487 15.1598
831 1 2.6649 10.4346 15.1598
832 1 4.3408 11.0446 13.3763
833 1 6.6268 9.9787 13.3763
834 1 5.4838 10.5117 12.4846
835 1 4.8739 12.1876 14.2680
836 1 7.1598 11.1217 14.2680
837 1 6.5498 12.7975 12.4846
838 1 4.9508 9.3687 15.1598
839 1 6.0168 11.6546 15.1598
840 1 7.6927 12.2646 13.3763
841 1 9.9786 11.1987 13.3763
842 1 8.8357 11.7317 12.4846
843 1 8.2258 13.4075 14.2680
844 1 10.5116 12.3417 14.2680
845 1 9.9016 14.0175 12.4846
846 1 8.3027 10.5887 15.1598
847 1 9.3687 12.8746 15.1598
848 1 11.0446 13.4846 13.3763
849 1 13.3305 12.4186 13.3763
850 1 12.1876 12.9517 12.4846
851 1 11.5776 14.6275 14.2680
852 1 13.8634 13.5616 14.2680
853 1 13.2535 15.2375 12.4846
854 1 11.6546 11.8086 15.1598
855 1 12.7205 14.0946 15.1598
856 1 14.3965 14.7046 13.3763
857 1 16.6824 13.6386 13.3763
858 1 15.5395 14.1717 12.4846
859 1 14.9295 15.8475 14.2680
860 1 17.2153 14.7816 14.2680
861 1 16.6054 16.4575 12.4846
862 1 15.0065 13.0286 15.1598
863 1 16.0724 15.3146 15.1598
864 1 17.7484 15.9246 13.3763
865 1 2.0549 12.1106 13.3763
866 1 0.9120 12.6436 12.4846
867 1 0.3020 14.3195 14.2680
868 1 2.5878 13.2536 14.2680
869 1 1.9778 14.9294 12.4846
870 1 0.3790 11.5006 15.1598
871 1 1.4449 13.7865 15.1598
872 1 3.1208 14.3965 13.3763
873 1 5.4068 13.3306 13.3763
874 1 4.2638 13.8636 12.4846
875 1 3.6539 15.5394 14.2680
876 1 5.9398 14.4736 14.2680
877 1 5.3298 16.1494 12.4846
878 1 3.7308 12.7206 15.1598
879 1 4.7968 15.0065 15.1598
880 1 6.4727 15.6165 13.3763
881 1 8.7587 14.5505 13.3763
882 1 7.6157 15.0836 12.4846
883 1 7.0058 16.7594 14.2680
884 1 9.2916 15.6935 14.2680
885 1 8.6816 17.3694 12.4846
886 1 7.0827 13.9405 15.1598
887 1 8.1487 16.2265 15.1598
888 1 9.8246 16.8365 13.3763
889 1 12.1105 15.7705 13.3763
890 1 10.9676 16.3036 12.4846
891 1 12.6435 16.9135 14.2680
892 1 10.4346 15.1605 15.1598
893 1 11.5006 17.4465 15.1598
894 1 15.4624 16.9905 13.3763
895 1 14.3195 17.5235 12.4846
896 1 13.7865 16.3805 15.1598
897 1 17.1384 17.6005 15.1598
898 1 0.8349 15.4624 13.3763
899 1 1.3678 16.6054 14.2680
900 1 0.2249 17.1384 15.1598
901 1 1.9009 17.7484 13.3763
902 1 4.1868 16.6824 13.3763
903 1 3.0439 17.2155 12.4846
904 1 4.7198 17.8255 14.2680
905 1 2.5108 16.0724 15.1598
906 1 5.8627 17.2924 15.1598
907 1 13.1057 0.0000 17.8350
908 1 14.7815 0.6100 16.0516
909 1 15.9245 0.0771 16.9433
910 1 16.4576 1.2200 17.8350
911 1 17.6005 0.6870 18.7268
912 1 3.5059 0.3019 16.0516
913 1 5.1819 0.9119 17.8350
914 1 6.8578 1.5219 16.0516
915 1 6.3248 0.3790 18.7268
916 1 8.0008 0.9890 16.9433
917 1 9.1438 0.4561 16.0516
918 1 8.5338 2.1319 17.8350
919 1 10.8197 1.0660 17.8350
920 1 10.2098 2.7419 16.0516
921 1 9.6767 1.5990 18.7268
922 1 11.3527 2.2090 16.9433
923 1 13.6386 1.1430 16.9433
924 1 12.4957 1.6760 16.0516
925 1 11.8857 3.3519 17.8350
926 1 14.1715 2.2860 17.8350
927 1 13.5616 3.9618 16.0516
928 1 11.9627 0.5330 18.7268
929 1 13.0286 2.8189 18.7268
930 1 14.7046 3.4289 16.9433
931 1 16.9905 2.3630 16.9433
932 1 15.8476 2.8960 16.0516
933 1 15.2376 4.5719 17.8350
934 1 17.5234 3.5060 17.8350
935 1 16.9134 5.1818 16.0516
936 1 15.3145 1.7530 18.7268
937 1 16.3805 4.0389 18.7268
938 1 0.0770 1.9009 16.9433
939 1 2.3630 0.8349 16.9433
940 1 1.2200 1.3680 16.0516
941 1 0.6100 3.0439 17.8350
942 1 2.8959 1.9779 17.8350
943 1 2.2859 3.6539 16.0516
944 1 0.6870 0.2249 18.7268
945 1 1.7530 2.5109 18.7268
946 1 3.4289 3.1209 16.9433
947 1 5.7149 2.0549 16.9433
948 1 4.5719 2.5880 16.0516
949 1 3.9619 4.2639 17.8350
950 1 6.2478 3.1979 17.8350
951 1 5.6378 4.8739 16.0516
952 1 4.0389 1.4449 18.7268
953 1 5.1049 3.7309 18.7268
954 1 6.7808 4.3409 16.9433
955 1 9.0667 3.2749 16.9433
956 1 7.9238 3.8079 16.0516
957 1 7.3138 5.4839 17.8350
958 1 9.5997 4.4179 17.8350
959 1 8.9897 6.0939 16.0516
960 1 7.3908 2.6649 18.7268
961 1 8.4567 4.9508 18.7268
962 1 10.1327 5.5608 16.9433
963 1 12.4186 4.4949 16.9433
964 1 11.2757 5.0279 16.0516
965 1 10.6657 6.7039 17.8350
966 1 12.9515 5.6379 17.8350
967 1 12.3415 7.3138 16.0516
968 1 10.7427 3.8849 18.7268
969 1 11.8086 6.1708 18.7268
970 1 13.4846 6.7808 16.9433
971 1 15.7705 5.7149 16.9433
972 1 14.6276 6.2479 16.0516
973 1 14.0176 7.9239 17.8350
974 1 16.3034 6.8579 17.8350
975 1 15.6934 8.5338 16.0516
976 1 14.0946 5.1049 18.7268
977 1 15.1605 7.3908 18.7268
978 1 16.8365 8.0008 16.9433
979 1 17.3695 9.1438 17.8350
980 1 17.4464 6.3249 18.7268
981 1 1.1430 4.1868 16.9433
982 1 0.0000 4.7199 16.0516
983 1 1.6759 5.3298 17.8350
984 1 1.0659 7.0057 16.0516
985 1 0.5330 5.8628 18.7268
986 1 2.2089 6.4727 16.9433
987 1 4.4949 5.4068 16.9433
988 1 3.3519 5.9398 16.0516
989 1 2.7420 7.6157 17.8350
990 1 5.0278 6.5498 17.8350
991 1 4.4178 8.2256 16.0516
992 1 2.8189 4.7968 18.7268
993 1 3.8849 7.0827 18.7268
994 1 5.5608 7.6927 16.9433
995 1 7.8467 6.6268 16.9433
996 1 6.7038 7.1598 16.0516
997 1 6.0939 8.8357 17.8350
998 1 8.3798 7.7698 17.8350
999 1 7.7698 9.4457 16.0516
1000 1 6.1708 6.0168 18.7268
1001 1 7.2368 8.3027 18.7268
1002 1 8.9127 8.9127 16.9433
1003 1 11.1986 7.8468 16.9433
1004 1 10.0557 8.3798 16.0516
1005 1 9.4457 10.0557 17.8350
1006 1 11.7315 8.9898 17.8350
1007 1 11.1216 10.6656 16.0516
1008 1 9.5227 7.2368 18.7268
1009 1 10.5886 9.5227 18.7268
1010 1 12.2646 10.1327 16.9433
1011 1 14.5505 9.0668 16.9433
1012 1 13.4076 9.5998 16.0516
1013 1 12.7976 11.2756 17.8350
1014 1 15.0834 10.2098 17.8350
1015 1 14.4735 11.8856 16.0516
1016 1 12.8746 8.4568 18.7268
1017 1 13.9405 10.7427 18.7268
1018 1 15.6165 11.3527 16.9433
1019 1 16.7595 10.8198 16.0516
1020 1 16.1495 12.4956 17.8350
1021 1 17.8254 13.1056 16.0516
1022 1 16.2265 9.6767 18.7268
1023 1 17.2924 11.9627 18.7268
1024 1 0.4559 8.6817 17.8350
1025 1 0.9889 9.8246 16.9433
1026 1 3.2749 8.7587 16.9433
1027 1 2.1319 9.2917 16.0516
1028 1 1.5220 10.9676 17.8350
1029 1 3.8078 9.9017 17.8350
1030 1 3.1978 11.5775 16.0516
1031 1 1.5989 8.1487 18.7268
1032 1 2.6649 10.4346 18.7268
1033 1 4.3408 11.0446 16.9433
1034 1 6.6268 9.9787 16.9433
1035 1 5.4838 10.5117 16.0516
1036 1 4.8739 12.1876 17.8350
1037 1 7.1598 11.1217 17.8350
1038 1 6.5498 12.7975 16.0516
1039 1 4.9508 9.3687 18.7268
1040 1 6.0168 11.6546 18.7268
1041 1 7.6927 12.2646 16.9433
1042 1 9.9786 11.1987 16.9433
1043 1 8.8357 11.7317 16.0516
1044 1 8.2258 13.4075 17.8350
1045 1 10.5116 12.3417 17.8350
1046 1 9.9016 14.0175 16.0516
1047 1 8.3027 10.5887 18.7268
1048 1 9.3687 12.8746 18.7268
1049 1 11.0446 13.4846 16.9433
1050 1 13.3305 12.4186 16.9433
1051 1 12.1876 12.9517 16.0516
1052 1 11.5776 14.6275 17.8350
1053 1 13.8634 13.5616 17.8350
1054 1 13.2535 15.2375 16.0516
1055 1 11.6546 11.8086 18.7268
1056 1 12.7205 14.0946 18.7268