LAMMPS data file from restart file: timestep = 1, procs = 1

64000 atoms

3 atom types

0.0000 71.1528 xlo xhi
-6.1228 70.8035 ylo yhi
-50 71.34 zlo zhi

Masses

1 12.01
2 2
3 3

Atoms

1 1 0.0000 0.0000 0.0000
2 2 0.0000 1.6213 1.9322
3 3 1.7835 -0.1554 1.7767
4 4 1.7835 1.7767 0.1554
5 5 0.8918 0.8106 0.9661
6 8 2.6752 2.5873 1.1215
7 9 3.5670 0.0000 0.0000
8 10 3.5670 1.6213 1.9322
9 11 5.3505 -0.1554 1.7767
10 12 5.3505 1.7767 0.1554
11 13 4.4588 0.8106 0.9661
12 16 6.2422 2.5873 1.1215
13 17 7.1340 0.0000 0.0000
14 18 7.1340 1.6213 1.9322
15 19 8.9175 -0.1554 1.7767
16 20 8.9175 1.7767 0.1554
17 21 8.0258 0.8106 0.9661
18 24 9.8092 2.5873 1.1215
19 25 10.7010 0.0000 0.0000
20 26 10.7010 1.6213 1.9322
21 27 12.4845 -0.1554 1.7767
22 28 12.4845 1.7767 0.1554
23 29 11.5928 0.8106 0.9661
24 32 13.3763 2.5873 1.1215
25 33 14.2680 0.0000 0.0000
26 34 14.2680 1.6213 1.9322
27 35 16.0515 -0.1554 1.7767
28 36 16.0515 1.7767 0.1554
29 37 15.1598 0.8106 0.9661
30 40 16.9432 2.5873 1.1215
31 41 17.8350 0.0000 0.0000
32 42 17.8350 1.6213 1.9322
33 43 19.6185 -0.1554 1.7767
34 44 19.6185 1.7767 0.1554
35 45 18.7268 0.8106 0.9661
36 48 20.5102 2.5873 1.1215
37 49 21.4020 0.0000 0.0000
38 50 21.4020 1.6213 1.9322
39 51 23.1855 -0.1554 1.7767
40 52 23.1855 1.7767 0.1554
41 53 22.2938 0.8106 0.9661
42 56 24.0772 2.5873 1.1215
43 57 24.9690 0.0000 0.0000
44 58 24.9690 1.6213 1.9322
45 59 26.7525 -0.1554 1.7767
46 60 26.7525 1.7767 0.1554
47 61 25.8608 0.8106 0.9661
48 64 27.6442 2.5873 1.1215
49 65 28.5360 0.0000 0.0000
50 66 28.5360 1.6213 1.9322
51 67 30.3195 -0.1554 1.7767
52 68 30.3195 1.7767 0.1554
53 69 29.4278 0.8106 0.9661
54 72 31.2112 2.5873 1.1215
55 73 32.1030 0.0000 0.0000
56 74 32.1030 1.6213 1.9322
57 75 33.8865 -0.1554 1.7767
58 76 33.8865 1.7767 0.1554
59 77 32.9948 0.8106 0.9661
60 80 34.7782 2.5873 1.1215
61 81 35.6700 0.0000 0.0000
62 82 35.6700 1.6213 1.9322
63 85 36.5618 0.8106 0.9661
64 83 37.4535 -0.1554 1.7767
65 84 37.4535 1.7767 0.1554
66 88 38.3453 2.5873 1.1215
67 89 39.2370 0.0000 0.0000
68 90 39.2370 1.6213 1.9322
69 93 40.1288 0.8106 0.9661
70 91 41.0205 -0.1554 1.7767
71 92 41.0205 1.7767 0.1554
72 96 41.9123 2.5873 1.1215
73 97 42.8040 0.0000 0.0000
74 98 42.8040 1.6213 1.9322
75 101 43.6958 0.8106 0.9661
76 99 44.5875 -0.1554 1.7767
77 100 44.5875 1.7767 0.1554
78 104 45.4793 2.5873 1.1215
79 105 46.3710 0.0000 0.0000
80 106 46.3710 1.6213 1.9322
81 109 47.2628 0.8106 0.9661
82 107 48.1545 -0.1554 1.7767
83 108 48.1545 1.7767 0.1554
84 112 49.0463 2.5873 1.1215
85 113 49.9380 0.0000 0.0000
86 114 49.9380 1.6213 1.9322
87 117 50.8298 0.8106 0.9661
88 115 51.7215 -0.1554 1.7767
89 116 51.7215 1.7767 0.1554
90 120 52.6133 2.5873 1.1215
91 121 53.5050 0.0000 0.0000
92 122 53.5050 1.6213 1.9322
93 123 55.2885 -0.1554 1.7767
94 124 55.2885 1.7767 0.1554
95 125 54.3968 0.8106 0.9661
96 128 56.1803 2.5873 1.1215
97 129 57.0720 0.0000 0.0000
98 130 57.0720 1.6213 1.9322
99 131 58.8555 -0.1554 1.7767
100 132 58.8555 1.7767 0.1554
101 133 57.9638 0.8106 0.9661
102 136 59.7473 2.5873 1.1215
103 137 60.6390 0.0000 0.0000
104 138 60.6390 1.6213 1.9322
105 139 62.4225 -0.1554 1.7767
106 140 62.4225 1.7767 0.1554
107 141 61.5308 0.8106 0.9661
108 144 63.3143 2.5873 1.1215
109 145 64.2060 0.0000 0.0000
110 146 64.2060 1.6213 1.9322
111 147 65.9895 -0.1554 1.7767
112 148 65.9895 1.7767 0.1554
113 149 65.0978 0.8106 0.9661
114 152 66.8813 2.5873 1.1215
115 153 67.7730 0.0000 0.0000
116 154 67.7730 1.6213 1.9322
117 155 69.5565 -0.1554 1.7767
118 156 69.5565 1.7767 0.1554
119 157 68.6647 0.8106 0.9661
120 160 70.4483 2.5873 1.1215
121 161 0.0000 3.5534 0.3109
122 162 0.0000 5.1747 2.2430
123 163 1.7835 3.3980 2.0876
124 164 1.7835 5.3301 0.4663
125 165 0.8918 4.3641 1.2770
126 168 2.6752 6.1408 1.4324
127 169 3.5670 3.5534 0.3109
128 170 3.5670 5.1747 2.2430
129 171 5.3505 3.3980 2.0876
130 172 5.3505 5.3301 0.4663
131 173 4.4588 4.3641 1.2770
132 176 6.2422 6.1408 1.4324
133 177 7.1340 3.5534 0.3109
134 178 7.1340 5.1747 2.2430
135 179 8.9175 3.3980 2.0876
136 180 8.9175 5.3301 0.4663
137 181 8.0258 4.3641 1.2770
138 184 9.8092 6.1408 1.4324
139 185 10.7010 3.5534 0.3109
140 186 10.7010 5.1747 2.2430
141 187 12.4845 3.3980 2.0876
142 188 12.4845 5.3301 0.4663
143 189 11.5928 4.3641 1.2770
144 192 13.3763 6.1408 1.4324
145 193 14.2680 3.5534 0.3109
146 194 14.2680 5.1747 2.2430
147 195 16.0515 3.3980 2.0876
148 196 16.0515 5.3301 0.4663
149 197 15.1598 4.3641 1.2770
150 200 16.9432 6.1408 1.4324
151 201 17.8350 3.5534 0.3109
152 202 17.8350 5.1747 2.2430
153 203 19.6185 3.3980 2.0876
154 204 19.6185 5.3301 0.4663
155 205 18.7268 4.3641 1.2770
156 208 20.5102 6.1408 1.4324
157 209 21.4020 3.5534 0.3109
158 210 21.4020 5.1747 2.2430
159 211 23.1855 3.3980 2.0876
160 212 23.1855 5.3301 0.4663
161 213 22.2938 4.3641 1.2770
162 216 24.0772 6.1408 1.4324
163 217 24.9690 3.5534 0.3109
164 218 24.9690 5.1747 2.2430
165 219 26.7525 3.3980 2.0876
166 220 26.7525 5.3301 0.4663
167 221 25.8608 4.3641 1.2770
168 224 27.6442 6.1408 1.4324
169 225 28.5360 3.5534 0.3109
170 226 28.5360 5.1747 2.2430
171 227 30.3195 3.3980 2.0876
172 228 30.3195 5.3301 0.4663
173 229 29.4278 4.3641 1.2770
174 232 31.2112 6.1408 1.4324
175 233 32.1030 3.5534 0.3109
176 234 32.1030 5.1747 2.2430
177 235 33.8865 3.3980 2.0876
178 236 33.8865 5.3301 0.4663
179 237 32.9948 4.3641 1.2770
180 240 34.7782 6.1408 1.4324
181 241 35.6700 3.5534 0.3109
182 242 35.6700 5.1747 2.2430
183 245 36.5618 4.3641 1.2770
184 243 37.4535 3.3980 2.0876
185 244 37.4535 5.3301 0.4663
186 248 38.3453 6.1408 1.4324
187 249 39.2370 3.5534 0.3109
188 250 39.2370 5.1747 2.2430
189 253 40.1288 4.3641 1.2770
190 251 41.0205 3.3980 2.0876
191 252 41.0205 5.3301 0.4663
192 256 41.9123 6.1408 1.4324
193 257 42.8040 3.5534 0.3109
194 258 42.8040 5.1747 2.2430
195 261 43.6958 4.3641 1.2770
196 259 44.5875 3.3980 2.0876
197 260 44.5875 5.3301 0.4663
198 264 45.4793 6.1408 1.4324
199 265 46.3710 3.5534 0.3109
200 266 46.3710 5.1747 2.2430
201 269 47.2628 4.3641 1.2770
202 267 48.1545 3.3980 2.0876
203 268 48.1545 5.3301 0.4663
204 272 49.0463 6.1408 1.4324
205 273 49.9380 3.5534 0.3109
206 274 49.9380 5.1747 2.2430
207 277 50.8298 4.3641 1.2770
208 275 51.7215 3.3980 2.0876
209 276 51.7215 5.3301 0.4663
210 280 52.6133 6.1408 1.4324
211 281 53.5050 3.5534 0.3109
212 282 53.5050 5.1747 2.2430
213 283 55.2885 3.3980 2.0876
214 284 55.2885 5.3301 0.4663
215 285 54.3968 4.3641 1.2770
216 288 56.1803 6.1408 1.4324
217 289 57.0720 3.5534 0.3109
218 290 57.0720 5.1747 2.2430
219 291 58.8555 3.3980 2.0876
220 292 58.8555 5.3301 0.4663
221 293 57.9638 4.3641 1.2770
222 296 59.7473 6.1408 1.4324
223 297 60.6390 3.5534 0.3109
224 298 60.6390 5.1747 2.2430
225 299 62.4225 3.3980 2.0876
226 300 62.4225 5.3301 0.4663
227 301 61.5308 4.3641 1.2770
228 304 63.3143 6.1408 1.4324
229 305 64.2060 3.5534 0.3109
230 306 64.2060 5.1747 2.2430
231 307 65.9895 3.3980 2.0876
232 308 65.9895 5.3301 0.4663
233 309 65.0978 4.3641 1.2770
234 312 66.8813 6.1408 1.4324
235 313 67.7730 3.5534 0.3109
236 314 67.7730 5.1747 2.2430
237 315 69.5565 3.3980 2.0876
238 316 69.5565 5.3301 0.4663
239 317 68.6647 4.3641 1.2770
240 320 70.4483 6.1408 1.4324
241 321 0.0000 7.1069 0.6218
242 322 0.0000 8.7281 2.5539
243 323 1.7835 6.9514 2.3985
244 324 1.7835 8.8836 0.7772
245 325 0.8918 7.9175 1.5878
246 328 2.6752 9.6942 1.7433
247 329 3.5670 7.1069 0.6218
248 330 3.5670 8.7281 2.5539
249 331 5.3505 6.9514 2.3985
250 332 5.3505 8.8836 0.7772
251 333 4.4588 7.9175 1.5878
252 336 6.2422 9.6942 1.7433
253 337 7.1340 7.1069 0.6218
254 338 7.1340 8.7281 2.5539
255 339 8.9175 6.9514 2.3985
256 340 8.9175 8.8836 0.7772
257 341 8.0258 7.9175 1.5878
258 344 9.8092 9.6942 1.7433
259 345 10.7010 7.1069 0.6218
260 346 10.7010 8.7281 2.5539
261 347 12.4845 6.9514 2.3985
262 348 12.4845 8.8836 0.7772
263 349 11.5928 7.9175 1.5878
264 352 13.3763 9.6942 1.7433
265 353 14.2680 7.1069 0.6218
266 354 14.2680 8.7281 2.5539
267 355 16.0515 6.9514 2.3985
268 356 16.0515 8.8836 0.7772
269 357 15.1598 7.9175 1.5878
270 360 16.9432 9.6942 1.7433
271 361 17.8350 7.1069 0.6218
272 362 17.8350 8.7281 2.5539
273 363 19.6185 6.9514 2.3985
274 364 19.6185 8.8836 0.7772
275 365 18.7268 7.9175 1.5878
276 368 20.5102 9.6942 1.7433
277 369 21.4020 7.1069 0.6218
278 370 21.4020 8.7281 2.5539
279 371 23.1855 6.9514 2.3985
280 372 23.1855 8.8836 0.7772
281 373 22.2938 7.9175 1.5878
282 376 24.0772 9.6942 1.7433
283 377 24.9690 7.1069 0.6218
284 378 24.9690 8.7281 2.5539
285 379 26.7525 6.9514 2.3985
286 380 26.7525 8.8836 0.7772
287 381 25.8608 7.9175 1.5878
288 384 27.6442 9.6942 1.7433
289 385 28.5360 7.1069 0.6218
290 386 28.5360 8.7281 2.5539
291 387 30.3195 6.9514 2.3985
292 388 30.3195 8.8836 0.7772
293 389 29.4278 7.9175 1.5878
294 392 31.2112 9.6942 1.7433
295 393 32.1030 7.1069 0.6218
296 394 32.1030 8.7281 2.5539
297 395 33.8865 6.9514 2.3985
298 396 33.8865 8.8836 0.7772
299 397 32.9948 7.9175 1.5878
300 400 34.7782 9.6942 1.7433
301 401 35.6700 7.1069 0.6218
302 402 35.6700 8.7281 2.5539
303 405 36.5618 7.9175 1.5878
304 403 37.4535 6.9514 2.3985
305 404 37.4535 8.8836 0.7772
306 408 38.3453 9.6942 1.7433
307 409 39.2370 7.1069 0.6218
308 410 39.2370 8.7281 2.5539
309 413 40.1288 7.9175 1.5878
310 411 41.0205 6.9514 2.3985
311 412 41.0205 8.8836 0.7772
312 416 41.9123 9.6942 1.7433
313 417 42.8040 7.1069 0.6218
314 418 42.8040 8.7281 2.5539
315 421 43.6958 7.9175 1.5878
316 419 44.5875 6.9514 2.3985
317 420 44.5875 8.8836 0.7772
318 424 45.4793 9.6942 1.7433
319 425 46.3710 7.1069 0.6218
320 426 46.3710 8.7281 2.5539
321 429 47.2628 7.9175 1.5878
322 427 48.1545 6.9514 2.3985
323 428 48.1545 8.8836 0.7772
324 432 49.0463 9.6942 1.7433
325 433 49.9380 7.1069 0.6218
326 434 49.9380 8.7281 2.5539
327 437 50.8298 7.9175 1.5878
328 435 51.7215 6.9514 2.3985
329 436 51.7215 8.8836 0.7772
330 440 52.6133 9.6942 1.7433
331 441 53.5050 7.1069 0.6218
332 442 53.5050 8.7281 2.5539
333 443 55.2885 6.9514 2.3985
334 444 55.2885 8.8836 0.7772
335 445 54.3968 7.9175 1.5878
336 448 56.1803 9.6942 1.7433
337 449 57.0720 7.1069 0.6218
338 450 57.0720 8.7281 2.5539
339 451 58.8555 6.9514 2.3985
340 452 58.8555 8.8836 0.7772
341 453 57.9638 7.9175 1.5878
342 456 59.7473 9.6942 1.7433
343 457 60.6390 7.1069 0.6218
344 458 60.6390 8.7281 2.5539
345 459 62.4225 6.9514 2.3985
346 460 62.4225 8.8836 0.7772
347 461 61.5308 7.9175 1.5878
348 464 63.3143 9.6942 1.7433
349 465 64.2060 7.1069 0.6218
350 466 64.2060 8.7281 2.5539
351 467 65.9895 6.9514 2.3985
352 468 65.9895 8.8836 0.7772
353 469 65.0978 7.9175 1.5878
354 472 66.8813 9.6942 1.7433
355 473 67.7730 7.1069 0.6218
356 474 67.7730 8.7281 2.5539
357 475 69.5565 6.9514 2.3985
358 476 69.5565 8.8836 0.7772
359 477 68.6647 7.9175 1.5878
360 480 70.4483 9.6942 1.7433
361 481 0.0000 10.6603 0.9327
362 482 0.0000 12.2816 2.8648
363 483 1.7835 10.5048 2.7094
364 484 1.7835 12.4370 1.0881
365 485 0.8918 11.4710 1.8987
366 488 2.6752 13.2477 2.0542
367 489 3.5670 10.6603 0.9327
368 490 3.5670 12.2816 2.8648
369 491 5.3505 10.5048 2.7094
370 492 5.3505 12.4370 1.0881
371 493 4.4588 11.4710 1.8987
372 496 6.2422 13.2477 2.0542
373 497 7.1340 10.6603 0.9327
374 498 7.1340 12.2816 2.8648
375 499 8.9175 10.5048 2.7094
376 500 8.9175 12.4370 1.0881
377 501 8.0258 11.4710 1.8987
378 504 9.8092 13.2477 2.0542
379 505 10.7010 10.6603 0.9327
380 506 10.7010 12.2816 2.8648
381 507 12.4845 10.5048 2.7094
382 508 12.4845 12.4370 1.0881
383 509 11.5928 11.4710 1.8987
384 512 13.3763 13.2477 2.0542
385 513 14.2680 10.6603 0.9327
386 514 14.2680 12.2816 2.8648
387 515 16.0515 10.5048 2.7094
388 516 16.0515 12.4370 1.0881
389 517 15.1598 11.4710 1.8987
390 520 16.9432 13.2477 2.0542
391 521 17.8350 10.6603 0.9327
392 522 17.8350 12.2816 2.8648
393 523 19.6185 10.5048 2.7094
394 524 19.6185 12.4370 1.0881
395 525 18.7268 11.4710 1.8987
396 528 20.5102 13.2477 2.0542
397 529 21.4020 10.6603 0.9327
398 530 21.4020 12.2816 2.8648
399 531 23.1855 10.5048 2.7094
400 532 23.1855 12.4370 1.0881
401 533 22.2938 11.4710 1.8987
402 536 24.0772 13.2477 2.0542
403 537 24.9690 10.6603 0.9327
404 538 24.9690 12.2816 2.8648
405 539 26.7525 10.5048 2.7094
406 540 26.7525 12.4370 1.0881
407 541 25.8608 11.4710 1.8987
408 544 27.6442 13.2477 2.0542
409 545 28.5360 10.6603 0.9327
410 546 28.5360 12.2816 2.8648
411 547 30.3195 10.5048 2.7094
412 548 30.3195 12.4370 1.0881
413 549 29.4278 11.4710 1.8987
414 552 31.2112 13.2477 2.0542
415 553 32.1030 10.6603 0.9327
416 554 32.1030 12.2816 2.8648
417 555 33.8865 10.5048 2.7094
418 556 33.8865 12.4370 1.0881
419 557 32.9948 11.4710 1.8987
420 560 34.7782 13.2477 2.0542
421 561 35.6700 10.6603 0.9327
422 562 35.6700 12.2816 2.8648
423 565 36.5618 11.4710 1.8987
424 563 37.4535 10.5048 2.7094
425 564 37.4535 12.4370 1.0881
426 568 38.3453 13.2477 2.0542
427 569 39.2370 10.6603 0.9327
428 570 39.2370 12.2816 2.8648
429 573 40.1288 11.4710 1.8987
430 571 41.0205 10.5048 2.7094
431 572 41.0205 12.4370 1.0881
432 576 41.9123 13.2477 2.0542
433 577 42.8040 10.6603 0.9327
434 578 42.8040 12.2816 2.8648
435 581 43.6958 11.4710 1.8987
436 579 44.5875 10.5048 2.7094
437 580 44.5875 12.4370 1.0881
438 584 45.4793 13.2477 2.0542
439 585 46.3710 10.6603 0.9327
440 586 46.3710 12.2816 2.8648
441 589 47.2628 11.4710 1.8987
442 587 48.1545 10.5048 2.7094
443 588 48.1545 12.4370 1.0881
444 592 49.0463 13.2477 2.0542
445 593 49.9380 10.6603 0.9327
446 594 49.9380 12.2816 2.8648
447 597 50.8298 11.4710 1.8987
448 595 51.7215 10.5048 2.7094
449 596 51.7215 12.4370 1.0881
450 600 52.6133 13.2477 2.0542
451 601 53.5050 10.6603 0.9327
452 602 53.5050 12.2816 2.8648
453 603 55.2885 10.5048 2.7094
454 604 55.2885 12.4370 1.0881
455 605 54.3968 11.4710 1.8987
456 608 56.1803 13.2477 2.0542
457 609 57.0720 10.6603 0.9327
458 610 57.0720 12.2816 2.8648
459 611 58.8555 10.5048 2.7094
460 612 58.8555 12.4370 1.0881
461 613 57.9638 11.4710 1.8987
462 616 59.7473 13.2477 2.0542
463 617 60.6390 10.6603 0.9327
464 618 60.6390 12.2816 2.8648
465 619 62.4225 10.5048 2.7094
466 620 62.4225 12.4370 1.0881
467 621 61.5308 11.4710 1.8987
468 624 63.3143 13.2477 2.0542
469 625 64.2060 10.6603 0.9327
470 626 64.2060 12.2816 2.8648
471 627 65.9895 10.5048 2.7094
472 628 65.9895 12.4370 1.0881
473 629 65.0978 11.4710 1.8987
474 632 66.8813 13.2477 2.0542
475 633 67.7730 10.6603 0.9327
476 634 67.7730 12.2816 2.8648
477 635 69.5565 10.5048 2.7094
478 636 69.5565 12.4370 1.0881
479 637 68.6647 11.4710 1.8987
480 640 70.4483 13.2477 2.0542
481 641 0.0000 14.2137 1.2435
482 642 0.0000 15.8350 3.1757
483 643 1.7835 14.0583 3.0203
484 644 1.7835 15.9904 1.3990
485 645 0.8918 15.0244 2.2096
486 648 2.6752 16.8010 2.3651
487 649 3.5670 14.2137 1.2435
488 650 3.5670 15.8350 3.1757
489 651 5.3505 14.0583 3.0203
490 652 5.3505 15.9904 1.3990
491 653 4.4588 15.0244 2.2096
492 656 6.2422 16.8010 2.3651
493 657 7.1340 14.2137 1.2435
494 658 7.1340 15.8350 3.1757
495 659 8.9175 14.0583 3.0203
496 660 8.9175 15.9904 1.3990
497 661 8.0258 15.0244 2.2096
498 664 9.8092 16.8010 2.3651
499 665 10.7010 14.2137 1.2435
500 666 10.7010 15.8350 3.1757
501 667 12.4845 14.0583 3.0203
502 668 12.4845 15.9904 1.3990
503 669 11.5928 15.0244 2.2096
504 672 13.3763 16.8010 2.3651
505 673 14.2680 14.2137 1.2435
506 674 14.2680 15.8350 3.1757
507 675 16.0515 14.0583 3.0203
508 676 16.0515 15.9904 1.3990
509 677 15.1598 15.0244 2.2096
510 680 16.9432 16.8010 2.3651
511 681 17.8350 14.2137 1.2435
512 682 17.8350 15.8350 3.1757
513 683 19.6185 14.0583 3.0203
514 684 19.6185 15.9904 1.3990
515 685 18.7268 15.0244 2.2096
516 688 20.5102 16.8010 2.3651
517 689 21.4020 14.2137 1.2435
518 690 21.4020 15.8350 3.1757
519 691 23.1855 14.0583 3.0203
520 692 23.1855 15.9904 1.3990
521 693 22.2938 15.0244 2.2096
522 696 24.0772 16.8010 2.3651
523 697 24.9690 14.2137 1.2435
524 698 24.9690 15.8350 3.1757
525 699 26.7525 14.0583 3.0203
526 700 26.7525 15.9904 1.3990
527 701 25.8608 15.0244 2.2096
528 704 27.6442 16.8010 2.3651
529 705 28.5360 14.2137 1.2435
530 706 28.5360 15.8350 3.1757
531 707 30.3195 14.0583 3.0203
532 708 30.3195 15.9904 1.3990
533 709 29.4278 15.0244 2.2096
534 712 31.2112 16.8010 2.3651
535 713 32.1030 14.2137 1.2435
536 714 32.1030 15.8350 3.1757
537 715 33.8865 14.0583 3.0203
538 716 33.8865 15.9904 1.3990
539 717 32.9948 15.0244 2.2096
540 720 34.7782 16.8010 2.3651
541 721 35.6700 14.2137 1.2435
542 722 35.6700 15.8350 3.1757
543 725 36.5618 15.0244 2.2096
544 723 37.4535 14.0583 3.0203
545 724 37.4535 15.9904 1.3990
546 728 38.3453 16.8010 2.3651
547 729 39.2370 14.2137 1.2435
548 730 39.2370 15.8350 3.1757
549 733 40.1288 15.0244 2.2096
550 731 41.0205 14.0583 3.0203
551 732 41.0205 15.9904 1.3990
552 736 41.9123 16.8010 2.3651
553 737 42.8040 14.2137 1.2435
554 738 42.8040 15.8350 3.1757
555 741 43.6958 15.0244 2.2096
556 739 44.5875 14.0583 3.0203
557 740 44.5875 15.9904 1.3990
558 744 45.4793 16.8010 2.3651
559 745 46.3710 14.2137 1.2435
560 746 46.3710 15.8350 3.1757
561 749 47.2628 15.0244 2.2096
562 747 48.1545 14.0583 3.0203
563 748 48.1545 15.9904 1.3990
564 752 49.0463 16.8010 2.3651
565 753 49.9380 14.2137 1.2435
566 754 49.9380 15.8350 3.1757
567 757 50.8298 15.0244 2.2096
568 755 51.7215 14.0583 3.0203
569 756 51.7215 15.9904 1.3990
570 760 52.6133 16.8010 2.3651
571 761 53.5050 14.2137 1.2435
572 762 53.5050 15.8350 3.1757
573 763 55.2885 14.0583 3.0203
574 764 55.2885 15.9904 1.3990
575 765 54.3968 15.0244 2.2096
576 768 56.1803 16.8010 2.3651
577 769 57.0720 14.2137 1.2435
578 770 57.0720 15.8350 3.1757
579 771 58.8555 14.0583 3.0203
580 772 58.8555 15.9904 1.3990
581 773 57.9638 15.0244 2.2096
582 776 59.7473 16.8010 2.3651
583 777 60.6390 14.2137 1.2435
584 778 60.6390 15.8350 3.1757
585 779 62.4225 14.0583 3.0203
586 780 62.4225 15.9904 1.3990
587 781 61.5308 15.0244 2.2096
588 784 63.3143 16.8010 2.3651
589 785 64.2060 14.2137 1.2435
590 786 64.2060 15.8350 3.1757
591 787 65.9895 14.0583 3.0203
592 788 65.9895 15.9904 1.3990
593 789 65.0978 15.0244 2.2096
594 792 66.8813 16.8010 2.3651
595 793 67.7730 14.2137 1.2435
596 794 67.7730 15.8350 3.1757
597 795 69.5565 14.0583 3.0203
598 796 69.5565 15.9904 1.3990
599 797 68.6647 15.0244 2.2096
600 800 70.4483 16.8010 2.3651
601 801 0.0000 17.7671 1.5544
602 802 0.0000 19.3884 3.4866
603 803 1.7835 17.6117 3.3311
604 804 1.7835 19.5438 1.7099
605 805 0.8918 18.5778 2.5205
606 809 3.5670 17.7671 1.5544
607 810 3.5670 19.3884 3.4866
608 811 5.3505 17.6117 3.3311
609 812 5.3505 19.5438 1.7099
610 813 4.4588 18.5778 2.5205
611 817 7.1340 17.7671 1.5544
612 818 7.1340 19.3884 3.4866
613 819 8.9175 17.6117 3.3311
614 820 8.9175 19.5438 1.7099
615 821 8.0258 18.5778 2.5205
616 825 10.7010 17.7671 1.5544
617 826 10.7010 19.3884 3.4866
618 827 12.4845 17.6117 3.3311
619 828 12.4845 19.5438 1.7099
620 829 11.5928 18.5778 2.5205
621 833 14.2680 17.7671 1.5544
622 834 14.2680 19.3884 3.4866
623 835 16.0515 17.6117 3.3311
624 836 16.0515 19.5438 1.7099
625 837 15.1598 18.5778 2.5205
626 841 17.8350 17.7671 1.5544
627 842 17.8350 19.3884 3.4866
628 843 19.6185 17.6117 3.3311
629 844 19.6185 19.5438 1.7099
630 845 18.7268 18.5778 2.5205
631 849 21.4020 17.7671 1.5544
632 850 21.4020 19.3884 3.4866
633 851 23.1855 17.6117 3.3311
634 852 23.1855 19.5438 1.7099
635 853 22.2938 18.5778 2.5205
636 857 24.9690 17.7671 1.5544
637 858 24.9690 19.3884 3.4866
638 859 26.7525 17.6117 3.3311
639 860 26.7525 19.5438 1.7099
640 861 25.8608 18.5778 2.5205
641 865 28.5360 17.7671 1.5544
642 866 28.5360 19.3884 3.4866
643 867 30.3195 17.6117 3.3311
644 868 30.3195 19.5438 1.7099
645 869 29.4278 18.5778 2.5205
646 873 32.1030 17.7671 1.5544
647 874 32.1030 19.3884 3.4866
648 875 33.8865 17.6117 3.3311
649 876 33.8865 19.5438 1.7099
650 877 32.9948 18.5778 2.5205
651 881 35.6700 17.7671 1.5544
652 882 35.6700 19.3884 3.4866
653 885 36.5618 18.5778 2.5205
654 883 37.4535 17.6117 3.3311
655 884 37.4535 19.5438 1.7099
656 889 39.2370 17.7671 1.5544
657 890 39.2370 19.3884 3.4866
658 893 40.1288 18.5778 2.5205
659 891 41.0205 17.6117 3.3311
660 892 41.0205 19.5438 1.7099
661 897 42.8040 17.7671 1.5544
662 898 42.8040 19.3884 3.4866
663 901 43.6958 18.5778 2.5205
664 899 44.5875 17.6117 3.3311
665 900 44.5875 19.5438 1.7099
666 905 46.3710 17.7671 1.5544
667 906 46.3710 19.3884 3.4866
668 909 47.2628 18.5778 2.5205
669 907 48.1545 17.6117 3.3311
670 908 48.1545 19.5438 1.7099
671 913 49.9380 17.7671 1.5544
672 914 49.9380 19.3884 3.4866
673 917 50.8298 18.5778 2.5205
674 915 51.7215 17.6117 3.3311
675 916 51.7215 19.5438 1.7099
676 921 53.5050 17.7671 1.5544
677 922 53.5050 19.3884 3.4866
678 923 55.2885 17.6117 3.3311
679 924 55.2885 19.5438 1.7099
680 925 54.3968 18.5778 2.5205
681 929 57.0720 17.7671 1.5544
682 930 57.0720 19.3884 3.4866
683 931 58.8555 17.6117 3.3311
684 932 58.8555 19.5438 1.7099
685 933 57.9638 18.5778 2.5205
686 937 60.6390 17.7671 1.5544
687 938 60.6390 19.3884 3.4866
688 939 62.4225 17.6117 3.3311
689 940 62.4225 19.5438 1.7099
690 941 61.5308 18.5778 2.5205
691 945 64.2060 17.7671 1.5544
692 946 64.2060 19.3884 3.4866
693 947 65.9895 17.6117 3.3311
694 948 65.9895 19.5438 1.7099
695 949 65.0978 18.5778 2.5205
696 953 67.7730 17.7671 1.5544
697 954 67.7730 19.3884 3.4866
698 955 69.5565 17.6117 3.3311
699 956 69.5565 19.5438 1.7099
700 957 68.6647 18.5778 2.5205
701 808 2.6752 20.3544 2.6759
702 961 0.0000 21.3206 1.8653
703 962 0.0000 22.9418 3.7975
704 963 1.7835 21.1651 3.6420
705 964 1.7835 23.0973 2.0207
706 965 0.8918 22.1312 2.8314
707 816 6.2422 20.3544 2.6759
708 969 3.5670 21.3206 1.8653
709 970 3.5670 22.9418 3.7975
710 971 5.3505 21.1651 3.6420
711 972 5.3505 23.0973 2.0207
712 973 4.4588 22.1312 2.8314
713 824 9.8092 20.3544 2.6759
714 977 7.1340 21.3206 1.8653
715 978 7.1340 22.9418 3.7975
716 979 8.9175 21.1651 3.6420
717 980 8.9175 23.0973 2.0207
718 981 8.0258 22.1312 2.8314
719 832 13.3763 20.3544 2.6759
720 985 10.7010 21.3206 1.8653
721 986 10.7010 22.9418 3.7975
722 987 12.4845 21.1651 3.6420
723 988 12.4845 23.0973 2.0207
724 989 11.5928 22.1312 2.8314
725 840 16.9432 20.3544 2.6759
726 993 14.2680 21.3206 1.8653
727 994 14.2680 22.9418 3.7975
728 995 16.0515 21.1651 3.6420
729 996 16.0515 23.0973 2.0207
730 997 15.1598 22.1312 2.8314
731 1001 17.8350 21.3206 1.8653
732 1002 17.8350 22.9418 3.7975
733 1003 19.6185 21.1651 3.6420
734 1004 19.6185 23.0973 2.0207
735 1005 18.7268 22.1312 2.8314
736 848 20.5102 20.3544 2.6759
737 1009 21.4020 21.3206 1.8653
738 1010 21.4020 22.9418 3.7975
739 1011 23.1855 21.1651 3.6420
740 1012 23.1855 23.0973 2.0207
741 1013 22.2938 22.1312 2.8314
742 856 24.0772 20.3544 2.6759
743 1017 24.9690 21.3206 1.8653
744 1018 24.9690 22.9418 3.7975
745 1019 26.7525 21.1651 3.6420
746 1020 26.7525 23.0973 2.0207
747 1021 25.8608 22.1312 2.8314
748 864 27.6442 20.3544 2.6759
749 1025 28.5360 21.3206 1.8653
750 1026 28.5360 22.9418 3.7975
751 1027 30.3195 21.1651 3.6420
752 1028 30.3195 23.0973 2.0207
753 1029 29.4278 22.1312 2.8314
754 872 31.2112 20.3544 2.6759
755 1033 32.1030 21.3206 1.8653
756 1034 32.1030 22.9418 3.7975
757 1035 33.8865 21.1651 3.6420
758 1036 33.8865 23.0973 2.0207
759 1037 32.9948 22.1312 2.8314
760 880 34.7782 20.3544 2.6759
761 1041 35.6700 21.3206 1.8653
762 1042 35.6700 22.9418 3.7975
763 1045 36.5618 22.1312 2.8314
764 888 38.3453 20.3544 2.6759
765 1043 37.4535 21.1651 3.6420
766 1044 37.4535 23.0973 2.0207
767 1049 39.2370 21.3206 1.8653
768 1050 39.2370 22.9418 3.7975
769 1053 40.1288 22.1312 2.8314
770 896 41.9123 20.3544 2.6759
771 1051 41.0205 21.1651 3.6420
772 1052 41.0205 23.0973 2.0207
773 1057 42.8040 21.3206 1.8653
774 1058 42.8040 22.9418 3.7975
775 1061 43.6958 22.1312 2.8314
776 904 45.4793 20.3544 2.6759
777 1059 44.5875 21.1651 3.6420
778 1060 44.5875 23.0973 2.0207
779 1065 46.3710 21.3206 1.8653
780 1066 46.3710 22.9418 3.7975
781 1069 47.2628 22.1312 2.8314
782 912 49.0463 20.3544 2.6759
783 1067 48.1545 21.1651 3.6420
784 1068 48.1545 23.0973 2.0207
785 1073 49.9380 21.3206 1.8653
786 1074 49.9380 22.9418 3.7975
787 1077 50.8298 22.1312 2.8314
788 920 52.6133 20.3544 2.6759
789 1075 51.7215 21.1651 3.6420
790 1076 51.7215 23.0973 2.0207
791 1081 53.5050 21.3206 1.8653
792 1082 53.5050 22.9418 3.7975
793 928 56.1803 20.3544 2.6759
794 1083 55.2885 21.1651 3.6420
795 1084 55.2885 23.0973 2.0207
796 1085 54.3968 22.1312 2.8314
797 1089 57.0720 21.3206 1.8653
798 1090 57.0720 22.9418 3.7975
799 936 59.7473 20.3544 2.6759
800 1091 58.8555 21.1651 3.6420
801 1092 58.8555 23.0973 2.0207
802 1093 57.9638 22.1312 2.8314
803 1097 60.6390 21.3206 1.8653
804 1098 60.6390 22.9418 3.7975
805 944 63.3143 20.3544 2.6759
806 1099 62.4225 21.1651 3.6420
807 1100 62.4225 23.0973 2.0207
808 1101 61.5308 22.1312 2.8314
809 1105 64.2060 21.3206 1.8653
810 1106 64.2060 22.9418 3.7975
811 952 66.8813 20.3544 2.6759
812 1107 65.9895 21.1651 3.6420
813 1108 65.9895 23.0973 2.0207
814 1109 65.0978 22.1312 2.8314
815 1113 67.7730 21.3206 1.8653
816 1114 67.7730 22.9418 3.7975
817 960 70.4483 20.3544 2.6759
818 1115 69.5565 21.1651 3.6420
819 1116 69.5565 23.0973 2.0207
820 1117 68.6647 22.1312 2.8314
821 968 2.6752 23.9079 2.9868
822 1121 0.0000 24.8740 2.1762
823 1122 0.0000 26.4953 4.1083
824 1123 1.7835 24.7185 3.9529
825 1124 1.7835 26.6507 2.3316
826 1125 0.8918 25.6847 3.1423
827 976 6.2422 23.9079 2.9868
828 1129 3.5670 24.8740 2.1762
829 1130 3.5670 26.4953 4.1083
830 1131 5.3505 24.7185 3.9529
831 1132 5.3505 26.6507 2.3316
832 1133 4.4588 25.6847 3.1423
833 984 9.8092 23.9079 2.9868
834 1137 7.1340 24.8740 2.1762
835 1138 7.1340 26.4953 4.1083
836 1139 8.9175 24.7185 3.9529
837 1140 8.9175 26.6507 2.3316
838 1141 8.0258 25.6847 3.1423
839 992 13.3763 23.9079 2.9868
840 1145 10.7010 24.8740 2.1762
841 1146 10.7010 26.4953 4.1083
842 1147 12.4845 24.7185 3.9529
843 1148 12.4845 26.6507 2.3316
844 1149 11.5928 25.6847 3.1423
845 1000 16.9432 23.9079 2.9868
846 1153 14.2680 24.8740 2.1762
847 1154 14.2680 26.4953 4.1083
848 1155 16.0515 24.7185 3.9529
849 1156 16.0515 26.6507 2.3316
850 1157 15.1598 25.6847 3.1423
851 1161 17.8350 24.8740 2.1762
852 1162 17.8350 26.4953 4.1083
853 1163 19.6185 24.7185 3.9529
854 1164 19.6185 26.6507 2.3316
855 1165 18.7268 25.6847 3.1423
856 1008 20.5102 23.9079 2.9868
857 1169 21.4020 24.8740 2.1762
858 1170 21.4020 26.4953 4.1083
859 1171 23.1855 24.7185 3.9529
860 1172 23.1855 26.6507 2.3316
861 1173 22.2938 25.6847 3.1423
862 1016 24.0772 23.9079 2.9868
863 1177 24.9690 24.8740 2.1762
864 1178 24.9690 26.4953 4.1083
865 1179 26.7525 24.7185 3.9529
866 1180 26.7525 26.6507 2.3316
867 1181 25.8608 25.6847 3.1423
868 1024 27.6442 23.9079 2.9868
869 1185 28.5360 24.8740 2.1762
870 1186 28.5360 26.4953 4.1083
871 1187 30.3195 24.7185 3.9529
872 1188 30.3195 26.6507 2.3316
873 1189 29.4278 25.6847 3.1423
874 1032 31.2112 23.9079 2.9868
875 1193 32.1030 24.8740 2.1762
876 1194 32.1030 26.4953 4.1083
877 1195 33.8865 24.7185 3.9529
878 1196 33.8865 26.6507 2.3316
879 1197 32.9948 25.6847 3.1423
880 1040 34.7782 23.9079 2.9868
881 1201 35.6700 24.8740 2.1762
882 1202 35.6700 26.4953 4.1083
883 1205 36.5618 25.6847 3.1423
884 1048 38.3453 23.9079 2.9868
885 1203 37.4535 24.7185 3.9529
886 1204 37.4535 26.6507 2.3316
887 1209 39.2370 24.8740 2.1762
888 1210 39.2370 26.4953 4.1083
889 1213 40.1288 25.6847 3.1423
890 1056 41.9123 23.9079 2.9868
891 1211 41.0205 24.7185 3.9529
892 1212 41.0205 26.6507 2.3316
893 1217 42.8040 24.8740 2.1762
894 1218 42.8040 26.4953 4.1083
895 1221 43.6958 25.6847 3.1423
896 1064 45.4793 23.9079 2.9868
897 1219 44.5875 24.7185 3.9529
898 1220 44.5875 26.6507 2.3316
899 1225 46.3710 24.8740 2.1762
900 1226 46.3710 26.4953 4.1083
901 1229 47.2628 25.6847 3.1423
902 1072 49.0463 23.9079 2.9868
903 1227 48.1545 24.7185 3.9529
904 1228 48.1545 26.6507 2.3316
905 1233 49.9380 24.8740 2.1762
906 1234 49.9380 26.4953 4.1083
907 1237 50.8298 25.6847 3.1423
908 1080 52.6133 23.9079 2.9868
909 1235 51.7215 24.7185 3.9529
910 1236 51.7215 26.6507 2.3316
911 1241 53.5050 24.8740 2.1762
912 1242 53.5050 26.4953 4.1083
913 1088 56.1803 23.9079 2.9868
914 1243 55.2885 24.7185 3.9529
915 1244 55.2885 26.6507 2.3316
916 1245 54.3968 25.6847 3.1423
917 1249 57.0720 24.8740 2.1762
918 1250 57.0720 26.4953 4.1083
919 1096 59.7473 23.9079 2.9868
920 1251 58.8555 24.7185 3.9529
921 1252 58.8555 26.6507 2.3316
922 1253 57.9638 25.6847 3.1423
923 1257 60.6390 24.8740 2.1762
924 1258 60.6390 26.4953 4.1083
925 1104 63.3143 23.9079 2.9868
926 1259 62.4225 24.7185 3.9529
927 1260 62.4225 26.6507 2.3316
928 1261 61.5308 25.6847 3.1423
929 1265 64.2060 24.8740 2.1762
930 1266 64.2060 26.4953 4.1083
931 1112 66.8813 23.9079 2.9868
932 1267 65.9895 24.7185 3.9529
933 1268 65.9895 26.6507 2.3316
934 1269 65.0978 25.6847 3.1423
935 1273 67.7730 24.8740 2.1762
936 1274 67.7730 26.4953 4.1083
937 1120 70.4483 23.9079 2.9868
938 1275 69.5565 24.7185 3.9529
939 1276 69.5565 26.6507 2.3316
940 1277 68.6647 25.6847 3.1423
941 1128 2.6752 27.4613 3.2977
942 1281 0.0000 28.4274 2.4871
943 1282 0.0000 30.0487 4.4192
944 1283 1.7835 28.2720 4.2638
945 1284 1.7835 30.2041 2.6425
946 1285 0.8918 29.2381 3.4532
947 1136 6.2422 27.4613 3.2977
948 1289 3.5670 28.4274 2.4871
949 1290 3.5670 30.0487 4.4192
950 1291 5.3505 28.2720 4.2638
951 1292 5.3505 30.2041 2.6425
952 1293 4.4588 29.2381 3.4532
953 1144 9.8092 27.4613 3.2977
954 1297 7.1340 28.4274 2.4871
955 1298 7.1340 30.0487 4.4192
956 1299 8.9175 28.2720 4.2638
957 1300 8.9175 30.2041 2.6425
958 1301 8.0258 29.2381 3.4532
959 1152 13.3763 27.4613 3.2977
960 1305 10.7010 28.4274 2.4871
961 1306 10.7010 30.0487 4.4192
962 1307 12.4845 28.2720 4.2638
963 1308 12.4845 30.2041 2.6425
964 1309 11.5928 29.2381 3.4532
965 1160 16.9432 27.4613 3.2977
966 1313 14.2680 28.4274 2.4871
967 1314 14.2680 30.0487 4.4192
968 1315 16.0515 28.2720 4.2638
969 1316 16.0515 30.2041 2.6425
970 1317 15.1598 29.2381 3.4532
971 1321 17.8350 28.4274 2.4871
972 1322 17.8350 30.0487 4.4192
973 1323 19.6185 28.2720 4.2638
974 1324 19.6185 30.2041 2.6425
975 1325 18.7268 29.2381 3.4532
976 1168 20.5102 27.4613 3.2977