LAMMPS data file from restart file: timestep = 1, procs = 1

1118 atoms

3 atom types

0.0000 28.7823 xlo xhi
0.0000 10.7785 ylo yhi
-50 71.34 zlo zhi

Masses

1 12.01
2 2
3 3

Atoms

1 1 24.5354 0.5391 0.0000
2 1 25.6783 0.0061 0.8918
3 1 26.2113 1.1490 1.7836
4 1 27.8873 1.7591 0.0000
5 1 28.4973 0.0832 1.7836
6 1 13.2598 0.2310 0.0000
7 1 14.9356 0.8410 1.7836
8 1 16.6117 1.4510 0.0000
9 1 18.8975 0.3851 0.0000
10 1 17.7546 0.9180 0.8918
11 1 18.2875 2.0610 1.7836
12 1 19.9636 2.6710 0.0000
13 1 22.2494 1.6051 0.0000
14 1 21.1065 2.1380 0.8918
15 1 20.5735 0.9951 1.7836
16 1 21.6394 3.2809 1.7836
17 1 23.3154 3.8910 0.0000
18 1 25.6013 2.8251 0.0000
19 1 23.3924 1.0721 0.8918
20 1 24.4583 3.3580 0.8918
21 1 23.9254 2.2151 1.7836
22 1 24.9913 4.5009 1.7836
23 1 26.6673 5.1109 0.0000
24 1 26.7443 2.2921 0.8918
25 1 27.8102 4.5780 0.8918
26 1 27.2773 3.4351 1.7836
27 1 28.3432 5.7209 1.7836
28 1 3.6600 0.5329 1.7836
29 1 5.3360 1.1429 0.0000
30 1 7.6218 0.0770 0.0000
31 1 6.4789 0.6100 0.8918
32 1 7.0119 1.7529 1.7836
33 1 8.6879 2.3629 0.0000
34 1 10.9738 1.2970 0.0000
35 1 9.8308 1.8300 0.8918
36 1 9.2979 0.6871 1.7836
37 1 10.3639 2.9729 1.7836
38 1 12.0398 3.5829 0.0000
39 1 14.3256 2.5170 0.0000
40 1 12.1168 0.7640 0.8918
41 1 13.1827 3.0499 0.8918
42 1 12.6498 1.9070 1.7836
43 1 13.7157 4.1928 1.7836
44 1 15.3917 4.8029 0.0000
45 1 17.6775 3.7370 0.0000
46 1 15.4686 1.9840 0.8918
47 1 16.5346 4.2699 0.8918
48 1 16.0017 3.1270 1.7836
49 1 17.0675 5.4128 1.7836
50 1 18.7436 6.0229 0.0000
51 1 21.0294 4.9570 0.0000
52 1 18.8205 3.2040 0.8918
53 1 19.8865 5.4899 0.8918
54 1 19.3535 4.3470 1.7836
55 1 20.4194 6.6328 1.7836
56 1 22.0955 7.2428 0.0000
57 1 24.3813 6.1770 0.0000
58 1 22.1724 4.4240 0.8918
59 1 23.2384 6.7099 0.8918
60 1 22.7054 5.5670 1.7836
61 1 23.7713 7.8528 1.7836
62 1 25.4473 8.4628 0.0000
63 1 27.7331 7.3969 0.0000
64 1 25.5243 5.6440 0.8918
65 1 26.5902 7.9299 0.8918
66 1 26.0573 6.7870 1.7836
67 1 27.1232 9.0728 1.7836
68 1 0.7641 3.2749 0.0000
69 1 3.0500 2.2089 0.0000
70 1 0.8411 0.4559 0.8918
71 1 1.9071 2.7419 0.8918
72 1 1.3741 1.5990 1.7836
73 1 2.4400 3.8849 1.7836
74 1 4.1160 4.4949 0.0000
75 1 6.4019 3.4289 0.0000
76 1 4.1930 1.6759 0.8918
77 1 5.2590 3.9619 0.8918
78 1 4.7260 2.8190 1.7836
79 1 5.7919 5.1049 1.7836
80 1 7.4679 5.7149 0.0000
81 1 9.7538 4.6489 0.0000
82 1 7.5449 2.8959 0.8918
83 1 8.6108 5.1818 0.8918
84 1 8.0779 4.0389 1.7836
85 1 9.1438 6.3249 1.7836
86 1 10.8198 6.9349 0.0000
87 1 13.1056 5.8689 0.0000
88 1 10.8968 4.1159 0.8918
89 1 11.9627 6.4018 0.8918
90 1 11.4298 5.2589 1.7836
91 1 12.4956 7.5448 1.7836
92 1 14.1717 8.1549 0.0000
93 1 16.4575 7.0889 0.0000
94 1 14.2487 5.3359 0.8918
95 1 15.3146 7.6218 0.8918
96 1 14.7817 6.4789 1.7836
97 1 15.8475 8.7648 1.7836
98 1 17.5236 9.3748 0.0000
99 1 19.8094 8.3089 0.0000
100 1 17.6005 6.5559 0.8918
101 1 18.6665 8.8418 0.8918
102 1 18.1335 7.6989 1.7836
103 1 19.1994 9.9848 1.7836
104 1 20.8754 10.5948 0.0000
105 1 23.1613 9.5288 0.0000
106 1 20.9524 7.7759 0.8918
107 1 22.0184 10.0618 0.8918
108 1 21.4854 8.9189 1.7836
109 1 24.3043 8.9958 0.8918
110 1 24.8373 10.1389 1.7836
111 1 27.6562 10.2158 0.8918
112 1 1.8300 5.5608 0.0000
113 1 0.6871 6.0938 0.8918
114 1 0.1541 4.9509 1.7836
115 1 1.2200 7.2367 1.7836
116 1 2.8961 7.8467 0.0000
117 1 5.1819 6.7808 0.0000
118 1 2.9730 5.0278 0.8918
119 1 4.0390 7.3137 0.8918
120 1 3.5060 6.1708 1.7836
121 1 4.5719 8.4566 1.7836
122 1 6.2480 9.0667 0.0000
123 1 8.5339 8.0008 0.0000
124 1 6.3249 6.2478 0.8918
125 1 7.3909 8.5337 0.8918
126 1 6.8579 7.3908 1.7836
127 1 7.9239 9.6767 1.7836
128 1 9.5998 10.2867 0.0000
129 1 11.8856 9.2208 0.0000
130 1 9.6768 7.4678 0.8918
131 1 10.7427 9.7537 0.8918
132 1 10.2098 8.6108 1.7836
133 1 15.2375 10.4408 0.0000
134 1 13.0287 8.6878 0.8918
135 1 13.5617 9.8308 1.7836
136 1 16.3806 9.9077 0.8918
137 1 0.6100 8.9127 0.0000
138 1 0.0000 10.5885 1.7836
139 1 3.9619 10.1327 0.0000
140 1 1.7530 8.3797 0.8918
141 1 2.8190 10.6656 0.8918
142 1 2.2860 9.5227 1.7836
143 1 5.1049 9.5997 0.8918
144 1 24.5354 0.5391 3.5670
145 1 25.6783 0.0061 4.4588
146 1 26.2113 1.1490 5.3506
147 1 27.3543 0.6161 2.6753
148 1 27.8873 1.7591 3.5670
149 1 28.4973 0.0832 5.3506
150 1 13.2598 0.2310 3.5670
151 1 14.9356 0.8410 5.3506
152 1 16.0786 0.3081 2.6753
153 1 16.6117 1.4510 3.5670
154 1 18.8975 0.3851 3.5670
155 1 17.7546 0.9180 4.4588
156 1 18.2875 2.0610 5.3506
157 1 19.4305 1.5280 2.6753
158 1 21.7165 0.4621 2.6753
159 1 19.9636 2.6710 3.5670
160 1 22.2494 1.6051 3.5670
161 1 21.1065 2.1380 4.4588
162 1 20.5735 0.9951 5.3506
163 1 21.6394 3.2809 5.3506
164 1 22.7824 2.7480 2.6753
165 1 25.0683 1.6821 2.6753
166 1 23.3154 3.8910 3.5670
167 1 25.6013 2.8251 3.5670
168 1 23.3924 1.0721 4.4588
169 1 24.4583 3.3580 4.4588
170 1 23.9254 2.2151 5.3506
171 1 24.9913 4.5009 5.3506
172 1 26.1343 3.9680 2.6753
173 1 28.4202 2.9021 2.6753
174 1 26.6673 5.1109 3.5670
175 1 26.7443 2.2921 4.4588
176 1 27.8102 4.5780 4.4588
177 1 27.2773 3.4351 5.3506
178 1 28.3432 5.7209 5.3506
179 1 3.6600 0.5329 5.3506
180 1 4.8030 0.0000 2.6753
181 1 5.3360 1.1429 3.5670
182 1 7.6218 0.0770 3.5670
183 1 6.4789 0.6100 4.4588
184 1 7.0119 1.7529 5.3506
185 1 8.1549 1.2200 2.6753
186 1 10.4408 0.1540 2.6753
187 1 8.6879 2.3629 3.5670
188 1 10.9738 1.2970 3.5670
189 1 9.8308 1.8300 4.4588
190 1 9.2979 0.6871 5.3506
191 1 10.3639 2.9729 5.3506
192 1 11.5068 2.4400 2.6753
193 1 13.7927 1.3740 2.6753
194 1 12.0398 3.5829 3.5670
195 1 14.3256 2.5170 3.5670
196 1 12.1168 0.7640 4.4588
197 1 13.1827 3.0499 4.4588
198 1 12.6498 1.9070 5.3506
199 1 13.7157 4.1928 5.3506
200 1 14.8587 3.6599 2.6753
201 1 17.1446 2.5940 2.6753
202 1 15.3917 4.8029 3.5670
203 1 17.6775 3.7370 3.5670
204 1 15.4686 1.9840 4.4588
205 1 16.5346 4.2699 4.4588
206 1 16.0017 3.1270 5.3506
207 1 17.0675 5.4128 5.3506
208 1 18.2105 4.8799 2.6753
209 1 20.4965 3.8140 2.6753
210 1 18.7436 6.0229 3.5670
211 1 21.0294 4.9570 3.5670
212 1 18.8205 3.2040 4.4588
213 1 19.8865 5.4899 4.4588
214 1 19.3535 4.3470 5.3506
215 1 20.4194 6.6328 5.3506
216 1 21.5624 6.0999 2.6753
217 1 23.8484 5.0340 2.6753
218 1 22.0955 7.2428 3.5670
219 1 24.3813 6.1770 3.5670
220 1 22.1724 4.4240 4.4588
221 1 23.2384 6.7099 4.4588
222 1 22.7054 5.5670 5.3506
223 1 23.7713 7.8528 5.3506
224 1 24.9143 7.3199 2.6753
225 1 27.2002 6.2539 2.6753
226 1 25.4473 8.4628 3.5670
227 1 27.7331 7.3969 3.5670
228 1 25.5243 5.6440 4.4588
229 1 26.5902 7.9299 4.4588
230 1 26.0573 6.7870 5.3506
231 1 27.1232 9.0728 5.3506
232 1 28.2662 8.5399 2.6753
233 1 0.2311 2.1319 2.6753
234 1 2.5171 1.0659 2.6753
235 1 0.7641 3.2749 3.5670
236 1 3.0500 2.2089 3.5670
237 1 0.8411 0.4559 4.4588
238 1 1.9071 2.7419 4.4588
239 1 1.3741 1.5990 5.3506
240 1 2.4400 3.8849 5.3506
241 1 3.5830 3.3519 2.6753
242 1 5.8690 2.2859 2.6753
243 1 4.1160 4.4949 3.5670
244 1 6.4019 3.4289 3.5670
245 1 4.1930 1.6759 4.4588
246 1 5.2590 3.9619 4.4588
247 1 4.7260 2.8190 5.3506
248 1 5.7919 5.1049 5.3506
249 1 6.9349 4.5719 2.6753
250 1 9.2208 3.5059 2.6753
251 1 7.4679 5.7149 3.5670
252 1 9.7538 4.6489 3.5670
253 1 7.5449 2.8959 4.4588
254 1 8.6108 5.1818 4.4588
255 1 8.0779 4.0389 5.3506
256 1 9.1438 6.3249 5.3506
257 1 10.2868 5.7918 2.6753
258 1 12.5727 4.7259 2.6753
259 1 10.8198 6.9349 3.5670
260 1 13.1056 5.8689 3.5670
261 1 10.8968 4.1159 4.4588
262 1 11.9627 6.4018 4.4588
263 1 11.4298 5.2589 5.3506
264 1 12.4956 7.5448 5.3506
265 1 13.6387 7.0118 2.6753
266 1 15.9246 5.9459 2.6753
267 1 14.1717 8.1549 3.5670
268 1 16.4575 7.0889 3.5670
269 1 14.2487 5.3359 4.4588
270 1 15.3146 7.6218 4.4588
271 1 14.7817 6.4789 5.3506
272 1 15.8475 8.7648 5.3506
273 1 16.9906 8.2318 2.6753
274 1 19.2765 7.1659 2.6753
275 1 17.5236 9.3748 3.5670
276 1 19.8094 8.3089 3.5670
277 1 17.6005 6.5559 4.4588
278 1 18.6665 8.8418 4.4588
279 1 18.1335 7.6989 5.3506
280 1 19.1994 9.9848 5.3506
281 1 20.3424 9.4518 2.6753
282 1 22.6284 8.3858 2.6753
283 1 20.8754 10.5948 3.5670
284 1 23.1613 9.5288 3.5670
285 1 20.9524 7.7759 4.4588
286 1 22.0184 10.0618 4.4588
287 1 21.4854 8.9189 5.3506
288 1 23.6943 10.6718 2.6753
289 1 25.9803 9.6058 2.6753
290 1 24.3043 8.9958 4.4588
291 1 24.8373 10.1389 5.3506
292 1 27.6562 10.2158 4.4588
293 1 1.2971 4.4178 2.6753
294 1 1.8300 5.5608 3.5670
295 1 0.6871 6.0938 4.4588
296 1 0.1541 4.9509 5.3506
297 1 1.2200 7.2367 5.3506
298 1 2.3630 6.7037 2.6753
299 1 4.6490 5.6378 2.6753
300 1 2.8961 7.8467 3.5670
301 1 5.1819 6.7808 3.5670
302 1 2.9730 5.0278 4.4588
303 1 4.0390 7.3137 4.4588
304 1 3.5060 6.1708 5.3506
305 1 4.5719 8.4566 5.3506
306 1 5.7149 7.9237 2.6753
307 1 8.0008 6.8578 2.6753
308 1 6.2480 9.0667 3.5670
309 1 8.5339 8.0008 3.5670
310 1 6.3249 6.2478 4.4588
311 1 7.3909 8.5337 4.4588
312 1 6.8579 7.3908 5.3506
313 1 7.9239 9.6767 5.3506
314 1 9.0668 9.1437 2.6753
315 1 11.3527 8.0778 2.6753
316 1 9.5998 10.2867 3.5670
317 1 11.8856 9.2208 3.5670
318 1 9.6768 7.4678 4.4588
319 1 10.7427 9.7537 4.4588
320 1 10.2098 8.6108 5.3506
321 1 12.4187 10.3637 2.6753
322 1 14.7046 9.2978 2.6753
323 1 15.2375 10.4408 3.5670
324 1 13.0287 8.6878 4.4588
325 1 13.5617 9.8308 5.3506
326 1 18.0565 10.5177 2.6753
327 1 16.3806 9.9077 4.4588
328 1 0.0771 7.7697 2.6753
329 1 0.6100 8.9127 3.5670
330 1 0.0000 10.5885 5.3506
331 1 1.1430 10.0556 2.6753
332 1 3.4290 8.9897 2.6753
333 1 3.9619 10.1327 3.5670
334 1 1.7530 8.3797 4.4588
335 1 2.8190 10.6656 4.4588
336 1 2.2860 9.5227 5.3506
337 1 6.7809 10.2097 2.6753
338 1 5.1049 9.5997 4.4588
339 1 24.5354 0.5391 7.1341
340 1 25.6783 0.0061 8.0258
341 1 26.2113 1.1490 8.9176
342 1 27.3543 0.6161 6.2423
343 1 27.8873 1.7591 7.1341
344 1 28.4973 0.0832 8.9176
345 1 13.2598 0.2310 7.1341
346 1 14.9356 0.8410 8.9176
347 1 16.0786 0.3081 6.2423
348 1 16.6117 1.4510 7.1341
349 1 18.8975 0.3851 7.1341
350 1 17.7546 0.9180 8.0258
351 1 18.2875 2.0610 8.9176
352 1 19.4305 1.5280 6.2423
353 1 21.7165 0.4621 6.2423
354 1 19.9636 2.6710 7.1341
355 1 22.2494 1.6051 7.1341
356 1 21.1065 2.1380 8.0258
357 1 20.5735 0.9951 8.9176
358 1 21.6394 3.2809 8.9176
359 1 22.7824 2.7480 6.2423
360 1 25.0683 1.6821 6.2423
361 1 23.3154 3.8910 7.1341
362 1 25.6013 2.8251 7.1341
363 1 23.3924 1.0721 8.0258
364 1 24.4583 3.3580 8.0258
365 1 23.9254 2.2151 8.9176
366 1 24.9913 4.5009 8.9176
367 1 26.1343 3.9680 6.2423
368 1 28.4202 2.9021 6.2423
369 1 26.6673 5.1109 7.1341
370 1 26.7443 2.2921 8.0258
371 1 27.8102 4.5780 8.0258
372 1 27.2773 3.4351 8.9176
373 1 28.3432 5.7209 8.9176
374 1 3.6600 0.5329 8.9176
375 1 4.8030 0.0000 6.2423
376 1 5.3360 1.1429 7.1341
377 1 7.6218 0.0770 7.1341
378 1 6.4789 0.6100 8.0258
379 1 7.0119 1.7529 8.9176
380 1 8.1549 1.2200 6.2423
381 1 10.4408 0.1540 6.2423
382 1 8.6879 2.3629 7.1341
383 1 10.9738 1.2970 7.1341
384 1 9.8308 1.8300 8.0258
385 1 9.2979 0.6871 8.9176
386 1 10.3639 2.9729 8.9176
387 1 11.5068 2.4400 6.2423
388 1 13.7927 1.3740 6.2423
389 1 12.0398 3.5829 7.1341
390 1 14.3256 2.5170 7.1341
391 1 12.1168 0.7640 8.0258
392 1 13.1827 3.0499 8.0258
393 1 12.6498 1.9070 8.9176
394 1 13.7157 4.1928 8.9176
395 1 14.8587 3.6599 6.2423
396 1 17.1446 2.5940 6.2423
397 1 15.3917 4.8029 7.1341
398 1 17.6775 3.7370 7.1341
399 1 15.4686 1.9840 8.0258
400 1 16.5346 4.2699 8.0258
401 1 16.0017 3.1270 8.9176
402 1 17.0675 5.4128 8.9176
403 1 18.2105 4.8799 6.2423
404 1 20.4965 3.8140 6.2423
405 1 18.7436 6.0229 7.1341
406 1 21.0294 4.9570 7.1341
407 1 18.8205 3.2040 8.0258
408 1 19.8865 5.4899 8.0258
409 1 19.3535 4.3470 8.9176
410 1 20.4194 6.6328 8.9176
411 1 21.5624 6.0999 6.2423
412 1 23.8484 5.0340 6.2423
413 1 22.0955 7.2428 7.1341
414 1 24.3813 6.1770 7.1341
415 1 22.1724 4.4240 8.0258
416 1 23.2384 6.7099 8.0258
417 1 22.7054 5.5670 8.9176
418 1 23.7713 7.8528 8.9176
419 1 24.9143 7.3199 6.2423
420 1 27.2002 6.2539 6.2423
421 1 25.4473 8.4628 7.1341
422 1 27.7331 7.3969 7.1341
423 1 25.5243 5.6440 8.0258
424 1 26.5902 7.9299 8.0258
425 1 26.0573 6.7870 8.9176
426 1 27.1232 9.0728 8.9176
427 1 28.2662 8.5399 6.2423
428 1 0.2311 2.1319 6.2423
429 1 2.5171 1.0659 6.2423
430 1 0.7641 3.2749 7.1341
431 1 3.0500 2.2089 7.1341
432 1 0.8411 0.4559 8.0258
433 1 1.9071 2.7419 8.0258
434 1 1.3741 1.5990 8.9176
435 1 2.4400 3.8849 8.9176
436 1 3.5830 3.3519 6.2423
437 1 5.8690 2.2859 6.2423
438 1 4.1160 4.4949 7.1341
439 1 6.4019 3.4289 7.1341
440 1 4.1930 1.6759 8.0258
441 1 5.2590 3.9619 8.0258
442 1 4.7260 2.8190 8.9176
443 1 5.7919 5.1049 8.9176
444 1 6.9349 4.5719 6.2423
445 1 9.2208 3.5059 6.2423
446 1 7.4679 5.7149 7.1341
447 1 9.7538 4.6489 7.1341
448 1 7.5449 2.8959 8.0258
449 1 8.6108 5.1818 8.0258
450 1 8.0779 4.0389 8.9176
451 1 9.1438 6.3249 8.9176
452 1 10.2868 5.7918 6.2423
453 1 12.5727 4.7259 6.2423
454 1 10.8198 6.9349 7.1341
455 1 13.1056 5.8689 7.1341
456 1 10.8968 4.1159 8.0258
457 1 11.9627 6.4018 8.0258
458 1 11.4298 5.2589 8.9176
459 1 12.4956 7.5448 8.9176
460 1 13.6387 7.0118 6.2423
461 1 15.9246 5.9459 6.2423
462 1 14.1717 8.1549 7.1341
463 1 16.4575 7.0889 7.1341
464 1 14.2487 5.3359 8.0258
465 1 15.3146 7.6218 8.0258
466 1 14.7817 6.4789 8.9176
467 1 15.8475 8.7648 8.9176
468 1 16.9906 8.2318 6.2423
469 1 19.2765 7.1659 6.2423
470 1 17.5236 9.3748 7.1341
471 1 19.8094 8.3089 7.1341
472 1 17.6005 6.5559 8.0258
473 1 18.6665 8.8418 8.0258
474 1 18.1335 7.6989 8.9176
475 1 19.1994 9.9848 8.9176
476 1 20.3424 9.4518 6.2423
477 1 22.6284 8.3858 6.2423
478 1 20.8754 10.5948 7.1341
479 1 23.1613 9.5288 7.1341
480 1 20.9524 7.7759 8.0258
481 1 22.0184 10.0618 8.0258
482 1 21.4854 8.9189 8.9176
483 1 23.6943 10.6718 6.2423
484 1 25.9803 9.6058 6.2423
485 1 24.3043 8.9958 8.0258
486 1 24.8373 10.1389 8.9176
487 1 27.6562 10.2158 8.0258
488 1 1.2971 4.4178 6.2423
489 1 1.8300 5.5608 7.1341
490 1 0.6871 6.0938 8.0258
491 1 0.1541 4.9509 8.9176
492 1 1.2200 7.2367 8.9176
493 1 2.3630 6.7037 6.2423
494 1 4.6490 5.6378 6.2423
495 1 2.8961 7.8467 7.1341
496 1 5.1819 6.7808 7.1341
497 1 2.9730 5.0278 8.0258
498 1 4.0390 7.3137 8.0258
499 1 3.5060 6.1708 8.9176
500 1 4.5719 8.4566 8.9176
501 1 5.7149 7.9237 6.2423
502 1 8.0008 6.8578 6.2423
503 1 6.2480 9.0667 7.1341
504 1 8.5339 8.0008 7.1341
505 1 6.3249 6.2478 8.0258
506 1 7.3909 8.5337 8.0258
507 1 6.8579 7.3908 8.9176
508 1 7.9239 9.6767 8.9176
509 1 9.0668 9.1437 6.2423
510 1 11.3527 8.0778 6.2423
511 1 9.5998 10.2867 7.1341
512 1 11.8856 9.2208 7.1341
513 1 9.6768 7.4678 8.0258
514 1 10.7427 9.7537 8.0258
515 1 10.2098 8.6108 8.9176
516 1 12.4187 10.3637 6.2423
517 1 14.7046 9.2978 6.2423
518 1 15.2375 10.4408 7.1341
519 1 13.0287 8.6878 8.0258
520 1 13.5617 9.8308 8.9176
521 1 18.0565 10.5177 6.2423
522 1 16.3806 9.9077 8.0258
523 1 0.0771 7.7697 6.2423
524 1 0.6100 8.9127 7.1341
525 1 0.0000 10.5885 8.9176
526 1 1.1430 10.0556 6.2423
527 1 3.4290 8.9897 6.2423
528 1 3.9619 10.1327 7.1341
529 1 1.7530 8.3797 8.0258
530 1 2.8190 10.6656 8.0258
531 1 2.2860 9.5227 8.9176
532 1 6.7809 10.2097 6.2423
533 1 5.1049 9.5997 8.0258
534 1 24.5354 0.5391 10.7010
535 1 25.6783 0.0061 11.5928
536 1 27.3543 0.6161 9.8093
537 1 27.8873 1.7591 10.7010
538 1 13.2598 0.2310 10.7010
539 1 16.0786 0.3081 9.8093
540 1 16.6117 1.4510 10.7010
541 1 18.8975 0.3851 10.7010
542 1 17.7546 0.9180 11.5928
543 1 19.4305 1.5280 9.8093
544 1 21.7165 0.4621 9.8093
545 1 19.9636 2.6710 10.7010
546 1 22.2494 1.6051 10.7010
547 1 21.1065 2.1380 11.5928
548 1 22.7824 2.7480 9.8093
549 1 25.0683 1.6821 9.8093
550 1 23.3154 3.8910 10.7010
551 1 25.6013 2.8251 10.7010
552 1 23.3924 1.0721 11.5928
553 1 24.4583 3.3580 11.5928
554 1 26.1343 3.9680 9.8093
555 1 28.4202 2.9021 9.8093
556 1 26.6673 5.1109 10.7010
557 1 26.7443 2.2921 11.5928
558 1 27.8102 4.5780 11.5928
559 1 4.8030 0.0000 9.8093
560 1 5.3360 1.1429 10.7010
561 1 7.6218 0.0770 10.7010
562 1 6.4789 0.6100 11.5928
563 1 8.1549 1.2200 9.8093
564 1 10.4408 0.1540 9.8093
565 1 8.6879 2.3629 10.7010
566 1 10.9738 1.2970 10.7010
567 1 9.8308 1.8300 11.5928
568 1 11.5068 2.4400 9.8093
569 1 13.7927 1.3740 9.8093
570 1 12.0398 3.5829 10.7010
571 1 14.3256 2.5170 10.7010
572 1 12.1168 0.7640 11.5928
573 1 13.1827 3.0499 11.5928
574 1 14.8587 3.6599 9.8093
575 1 17.1446 2.5940 9.8093
576 1 15.3917 4.8029 10.7010
577 1 17.6775 3.7370 10.7010
578 1 15.4686 1.9840 11.5928
579 1 16.5346 4.2699 11.5928
580 1 18.2105 4.8799 9.8093
581 1 20.4965 3.8140 9.8093
582 1 18.7436 6.0229 10.7010
583 1 21.0294 4.9570 10.7010
584 1 18.8205 3.2040 11.5928
585 1 19.8865 5.4899 11.5928
586 1 21.5624 6.0999 9.8093
587 1 23.8484 5.0340 9.8093
588 1 22.0955 7.2428 10.7010
589 1 24.3813 6.1770 10.7010
590 1 22.1724 4.4240 11.5928
591 1 23.2384 6.7099 11.5928
592 1 24.9143 7.3199 9.8093
593 1 27.2002 6.2539 9.8093
594 1 25.4473 8.4628 10.7010
595 1 27.7331 7.3969 10.7010
596 1 25.5243 5.6440 11.5928
597 1 26.5902 7.9299 11.5928
598 1 28.2662 8.5399 9.8093
599 1 0.2311 2.1319 9.8093
600 1 2.5171 1.0659 9.8093
601 1 0.7641 3.2749 10.7010
602 1 3.0500 2.2089 10.7010
603 1 0.8411 0.4559 11.5928
604 1 1.9071 2.7419 11.5928
605 1 3.5830 3.3519 9.8093
606 1 5.8690 2.2859 9.8093
607 1 4.1160 4.4949 10.7010
608 1 6.4019 3.4289 10.7010
609 1 4.1930 1.6759 11.5928
610 1 5.2590 3.9619 11.5928
611 1 6.9349 4.5719 9.8093
612 1 9.2208 3.5059 9.8093
613 1 7.4679 5.7149 10.7010
614 1 9.7538 4.6489 10.7010
615 1 7.5449 2.8959 11.5928
616 1 8.6108 5.1818 11.5928
617 1 10.2868 5.7918 9.8093
618 1 12.5727 4.7259 9.8093
619 1 10.8198 6.9349 10.7010
620 1 13.1056 5.8689 10.7010
621 1 10.8968 4.1159 11.5928
622 1 11.9627 6.4018 11.5928
623 1 13.6387 7.0118 9.8093
624 1 15.9246 5.9459 9.8093
625 1 14.1717 8.1549 10.7010
626 1 16.4575 7.0889 10.7010
627 1 14.2487 5.3359 11.5928
628 1 15.3146 7.6218 11.5928
629 1 16.9906 8.2318 9.8093
630 1 19.2765 7.1659 9.8093
631 1 17.5236 9.3748 10.7010
632 1 19.8094 8.3089 10.7010
633 1 17.6005 6.5559 11.5928
634 1 18.6665 8.8418 11.5928
635 1 20.3424 9.4518 9.8093
636 1 22.6284 8.3858 9.8093
637 1 20.8754 10.5948 10.7010
638 1 23.1613 9.5288 10.7010
639 1 20.9524 7.7759 11.5928
640 1 22.0184 10.0618 11.5928
641 1 23.6943 10.6718 9.8093
642 1 25.9803 9.6058 9.8093
643 1 24.3043 8.9958 11.5928
644 1 27.6562 10.2158 11.5928
645 1 1.2971 4.4178 9.8093
646 1 1.8300 5.5608 10.7010
647 1 0.6871 6.0938 11.5928
648 1 2.3630 6.7037 9.8093
649 1 4.6490 5.6378 9.8093
650 1 2.8961 7.8467 10.7010
651 1 5.1819 6.7808 10.7010
652 1 2.9730 5.0278 11.5928
653 1 4.0390 7.3137 11.5928
654 1 5.7149 7.9237 9.8093
655 1 8.0008 6.8578 9.8093
656 1 6.2480 9.0667 10.7010
657 1 8.5339 8.0008 10.7010
658 1 6.3249 6.2478 11.5928
659 1 7.3909 8.5337 11.5928
660 1 9.0668 9.1437 9.8093
661 1 11.3527 8.0778 9.8093
662 1 9.5998 10.2867 10.7010
663 1 11.8856 9.2208 10.7010
664 1 9.6768 7.4678 11.5928
665 1 10.7427 9.7537 11.5928
666 1 12.4187 10.3637 9.8093
667 1 14.7046 9.2978 9.8093
668 1 15.2375 10.4408 10.7010
669 1 13.0287 8.6878 11.5928
670 1 18.0565 10.5177 9.8093
671 1 16.3806 9.9077 11.5928
672 1 0.0771 7.7697 9.8093
673 1 0.6100 8.9127 10.7010
674 1 1.1430 10.0556 9.8093
675 1 3.4290 8.9897 9.8093
676 1 3.9619 10.1327 10.7010
677 1 1.7530 8.3797 11.5928
678 1 2.8190 10.6656 11.5928
679 1 6.7809 10.2097 9.8093
680 1 5.1049 9.5997 11.5928
681 1 24.5354 0.5391 14.2680
682 1 26.2113 1.1490 12.4846
683 1 25.6783 0.0061 15.1598
684 1 27.3543 0.6161 13.3763
685 1 28.4973 0.0832 12.4846
686 1 27.8873 1.7591 14.2680
687 1 13.2598 0.2310 14.2680
688 1 14.9356 0.8410 12.4846
689 1 16.0786 0.3081 13.3763
690 1 16.6117 1.4510 14.2680
691 1 18.8975 0.3851 14.2680
692 1 18.2875 2.0610 12.4846
693 1 17.7546 0.9180 15.1598
694 1 19.4305 1.5280 13.3763
695 1 21.7165 0.4621 13.3763
696 1 20.5735 0.9951 12.4846
697 1 19.9636 2.6710 14.2680
698 1 22.2494 1.6051 14.2680
699 1 21.6394 3.2809 12.4846
700 1 21.1065 2.1380 15.1598
701 1 22.7824 2.7480 13.3763
702 1 25.0683 1.6821 13.3763
703 1 23.9254 2.2151 12.4846
704 1 23.3154 3.8910 14.2680
705 1 25.6013 2.8251 14.2680
706 1 24.9913 4.5009 12.4846
707 1 23.3924 1.0721 15.1598
708 1 24.4583 3.3580 15.1598
709 1 26.1343 3.9680 13.3763
710 1 28.4202 2.9021 13.3763
711 1 27.2773 3.4351 12.4846
712 1 26.6673 5.1109 14.2680
713 1 28.3432 5.7209 12.4846
714 1 26.7443 2.2921 15.1598
715 1 27.8102 4.5780 15.1598
716 1 3.6600 0.5329 12.4846
717 1 4.8030 0.0000 13.3763
718 1 5.3360 1.1429 14.2680
719 1 7.6218 0.0770 14.2680
720 1 7.0119 1.7529 12.4846
721 1 6.4789 0.6100 15.1598
722 1 8.1549 1.2200 13.3763
723 1 10.4408 0.1540 13.3763
724 1 9.2979 0.6871 12.4846
725 1 8.6879 2.3629 14.2680
726 1 10.9738 1.2970 14.2680
727 1 10.3639 2.9729 12.4846
728 1 9.8308 1.8300 15.1598
729 1 11.5068 2.4400 13.3763
730 1 13.7927 1.3740 13.3763
731 1 12.6498 1.9070 12.4846
732 1 12.0398 3.5829 14.2680
733 1 14.3256 2.5170 14.2680
734 1 13.7157 4.1928 12.4846
735 1 12.1168 0.7640 15.1598
736 1 13.1827 3.0499 15.1598
737 1 14.8587 3.6599 13.3763
738 1 17.1446 2.5940 13.3763
739 1 16.0017 3.1270 12.4846
740 1 15.3917 4.8029 14.2680
741 1 17.6775 3.7370 14.2680
742 1 17.0675 5.4128 12.4846
743 1 15.4686 1.9840 15.1598
744 1 16.5346 4.2699 15.1598
745 1 18.2105 4.8799 13.3763
746 1 20.4965 3.8140 13.3763
747 1 19.3535 4.3470 12.4846
748 1 18.7436 6.0229 14.2680
749 1 21.0294 4.9570 14.2680
750 1 20.4194 6.6328 12.4846
751 1 18.8205 3.2040 15.1598
752 1 19.8865 5.4899 15.1598
753 1 21.5624 6.0999 13.3763
754 1 23.8484 5.0340 13.3763
755 1 22.7054 5.5670 12.4846
756 1 22.0955 7.2428 14.2680
757 1 24.3813 6.1770 14.2680
758 1 23.7713 7.8528 12.4846
759 1 22.1724 4.4240 15.1598
760 1 23.2384 6.7099 15.1598
761 1 24.9143 7.3199 13.3763
762 1 27.2002 6.2539 13.3763
763 1 26.0573 6.7870 12.4846
764 1 25.4473 8.4628 14.2680
765 1 27.7331 7.3969 14.2680
766 1 27.1232 9.0728 12.4846
767 1 25.5243 5.6440 15.1598
768 1 26.5902 7.9299 15.1598
769 1 28.2662 8.5399 13.3763
770 1 0.2311 2.1319 13.3763
771 1 2.5171 1.0659 13.3763
772 1 1.3741 1.5990 12.4846
773 1 0.7641 3.2749 14.2680
774 1 3.0500 2.2089 14.2680
775 1 2.4400 3.8849 12.4846
776 1 0.8411 0.4559 15.1598
777 1 1.9071 2.7419 15.1598
778 1 3.5830 3.3519 13.3763
779 1 5.8690 2.2859 13.3763
780 1 4.7260 2.8190 12.4846
781 1 4.1160 4.4949 14.2680
782 1 6.4019 3.4289 14.2680
783 1 5.7919 5.1049 12.4846
784 1 4.1930 1.6759 15.1598
785 1 5.2590 3.9619 15.1598
786 1 6.9349 4.5719 13.3763
787 1 9.2208 3.5059 13.3763
788 1 8.0779 4.0389 12.4846
789 1 7.4679 5.7149 14.2680
790 1 9.7538 4.6489 14.2680
791 1 9.1438 6.3249 12.4846
792 1 7.5449 2.8959 15.1598
793 1 8.6108 5.1818 15.1598
794 1 10.2868 5.7918 13.3763
795 1 12.5727 4.7259 13.3763
796 1 11.4298 5.2589 12.4846
797 1 10.8198 6.9349 14.2680
798 1 13.1056 5.8689 14.2680
799 1 12.4956 7.5448 12.4846
800 1 10.8968 4.1159 15.1598
801 1 11.9627 6.4018 15.1598
802 1 13.6387 7.0118 13.3763
803 1 15.9246 5.9459 13.3763
804 1 14.7817 6.4789 12.4846
805 1 14.1717 8.1549 14.2680
806 1 16.4575 7.0889 14.2680
807 1 15.8475 8.7648 12.4846
808 1 14.2487 5.3359 15.1598
809 1 15.3146 7.6218 15.1598
810 1 16.9906 8.2318 13.3763
811 1 19.2765 7.1659 13.3763
812 1 18.1335 7.6989 12.4846
813 1 17.5236 9.3748 14.2680
814 1 19.8094 8.3089 14.2680
815 1 19.1994 9.9848 12.4846
816 1 17.6005 6.5559 15.1598
817 1 18.6665 8.8418 15.1598
818 1 20.3424 9.4518 13.3763
819 1 22.6284 8.3858 13.3763
820 1 21.4854 8.9189 12.4846
821 1 20.8754 10.5948 14.2680
822 1 23.1613 9.5288 14.2680
823 1 20.9524 7.7759 15.1598
824 1 22.0184 10.0618 15.1598
825 1 23.6943 10.6718 13.3763
826 1 25.9803 9.6058 13.3763
827 1 24.8373 10.1389 12.4846
828 1 24.3043 8.9958 15.1598
829 1 27.6562 10.2158 15.1598
830 1 1.2971 4.4178 13.3763
831 1 0.1541 4.9509 12.4846
832 1 1.8300 5.5608 14.2680
833 1 1.2200 7.2367 12.4846
834 1 0.6871 6.0938 15.1598
835 1 2.3630 6.7037 13.3763
836 1 4.6490 5.6378 13.3763
837 1 3.5060 6.1708 12.4846
838 1 2.8961 7.8467 14.2680
839 1 5.1819 6.7808 14.2680
840 1 4.5719 8.4566 12.4846
841 1 2.9730 5.0278 15.1598
842 1 4.0390 7.3137 15.1598
843 1 5.7149 7.9237 13.3763
844 1 8.0008 6.8578 13.3763
845 1 6.8579 7.3908 12.4846
846 1 6.2480 9.0667 14.2680
847 1 8.5339 8.0008 14.2680
848 1 7.9239 9.6767 12.4846
849 1 6.3249 6.2478 15.1598
850 1 7.3909 8.5337 15.1598
851 1 9.0668 9.1437 13.3763
852 1 11.3527 8.0778 13.3763
853 1 10.2098 8.6108 12.4846
854 1 9.5998 10.2867 14.2680
855 1 11.8856 9.2208 14.2680
856 1 9.6768 7.4678 15.1598
857 1 10.7427 9.7537 15.1598
858 1 12.4187 10.3637 13.3763
859 1 14.7046 9.2978 13.3763
860 1 13.5617 9.8308 12.4846
861 1 15.2375 10.4408 14.2680
862 1 13.0287 8.6878 15.1598
863 1 18.0565 10.5177 13.3763
864 1 16.3806 9.9077 15.1598
865 1 0.0771 7.7697 13.3763
866 1 0.6100 8.9127 14.2680
867 1 0.0000 10.5885 12.4846
868 1 1.1430 10.0556 13.3763
869 1 3.4290 8.9897 13.3763
870 1 2.2860 9.5227 12.4846
871 1 3.9619 10.1327 14.2680
872 1 1.7530 8.3797 15.1598
873 1 2.8190 10.6656 15.1598
874 1 6.7809 10.2097 13.3763
875 1 5.1049 9.5997 15.1598
876 1 24.5354 0.5391 17.8350
877 1 26.2113 1.1490 16.0516
878 1 25.6783 0.0061 18.7268
879 1 27.3543 0.6161 16.9433
880 1 28.4973 0.0832 16.0516
881 1 27.8873 1.7591 17.8350
882 1 13.2598 0.2310 17.8350
883 1 14.9356 0.8410 16.0516
884 1 16.0786 0.3081 16.9433
885 1 16.6117 1.4510 17.8350
886 1 18.8975 0.3851 17.8350
887 1 18.2875 2.0610 16.0516
888 1 17.7546 0.9180 18.7268
889 1 19.4305 1.5280 16.9433
890 1 21.7165 0.4621 16.9433
891 1 20.5735 0.9951 16.0516
892 1 19.9636 2.6710 17.8350
893 1 22.2494 1.6051 17.8350
894 1 21.6394 3.2809 16.0516
895 1 21.1065 2.1380 18.7268
896 1 22.7824 2.7480 16.9433
897 1 25.0683 1.6821 16.9433
898 1 23.9254 2.2151 16.0516
899 1 23.3154 3.8910 17.8350
900 1 25.6013 2.8251 17.8350
901 1 24.9913 4.5009 16.0516
902 1 23.3924 1.0721 18.7268
903 1 24.4583 3.3580 18.7268
904 1 26.1343 3.9680 16.9433
905 1 28.4202 2.9021 16.9433
906 1 27.2773 3.4351 16.0516
907 1 26.6673 5.1109 17.8350
908 1 28.3432 5.7209 16.0516
909 1 26.7443 2.2921 18.7268
910 1 27.8102 4.5780 18.7268
911 1 3.6600 0.5329 16.0516
912 1 4.8030 0.0000 16.9433
913 1 5.3360 1.1429 17.8350
914 1 7.6218 0.0770 17.8350
915 1 7.0119 1.7529 16.0516
916 1 6.4789 0.6100 18.7268
917 1 8.1549 1.2200 16.9433
918 1 10.4408 0.1540 16.9433
919 1 9.2979 0.6871 16.0516
920 1 8.6879 2.3629 17.8350
921 1 10.9738 1.2970 17.8350
922 1 10.3639 2.9729 16.0516
923 1 9.8308 1.8300 18.7268
924 1 11.5068 2.4400 16.9433
925 1 13.7927 1.3740 16.9433
926 1 12.6498 1.9070 16.0516
927 1 12.0398 3.5829 17.8350
928 1 14.3256 2.5170 17.8350
929 1 13.7157 4.1928 16.0516
930 1 12.1168 0.7640 18.7268
931 1 13.1827 3.0499 18.7268
932 1 14.8587 3.6599 16.9433
933 1 17.1446 2.5940 16.9433
934 1 16.0017 3.1270 16.0516
935 1 15.3917 4.8029 17.8350
936 1 17.6775 3.7370 17.8350
937 1 17.0675 5.4128 16.0516
938 1 15.4686 1.9840 18.7268
939 1 16.5346 4.2699 18.7268
940 1 18.2105 4.8799 16.9433
941 1 20.4965 3.8140 16.9433
942 1 19.3535 4.3470 16.0516
943 1 18.7436 6.0229 17.8350
944 1 21.0294 4.9570 17.8350
945 1 20.4194 6.6328 16.0516
946 1 18.8205 3.2040 18.7268
947 1 19.8865 5.4899 18.7268
948 1 21.5624 6.0999 16.9433
949 1 23.8484 5.0340 16.9433
950 1 22.7054 5.5670 16.0516
951 1 22.0955 7.2428 17.8350
952 1 24.3813 6.1770 17.8350
953 1 23.7713 7.8528 16.0516
954 1 22.1724 4.4240 18.7268
955 1 23.2384 6.7099 18.7268
956 1 24.9143 7.3199 16.9433
957 1 27.2002 6.2539 16.9433
958 1 26.0573 6.7870 16.0516
959 1 25.4473 8.4628 17.8350
960 1 27.7331 7.3969 17.8350
961 1 27.1232 9.0728 16.0516
962 1 25.5243 5.6440 18.7268
963 1 26.5902 7.9299 18.7268
964 1 28.2662 8.5399 16.9433
965 1 0.2311 2.1319 16.9433
966 1 2.5171 1.0659 16.9433
967 1 1.3741 1.5990 16.0516
968 1 0.7641 3.2749 17.8350
969 1 3.0500 2.2089 17.8350
970 1 2.4400 3.8849 16.0516
971 1 0.8411 0.4559 18.7268
972 1 1.9071 2.7419 18.7268
973 1 3.5830 3.3519 16.9433
974 1 5.8690 2.2859 16.9433
975 1 4.7260 2.8190 16.0516
976 1 4.1160 4.4949 17.8350
977 1 6.4019 3.4289 17.8350
978 1 5.7919 5.1049 16.0516
979 1 4.1930 1.6759 18.7268
980 1 5.2590 3.9619 18.7268
981 1 6.9349 4.5719 16.9433
982 1 9.2208 3.5059 16.9433
983 1 8.0779 4.0389 16.0516
984 1 7.4679 5.7149 17.8350
985 1 9.7538 4.6489 17.8350
986 1 9.1438 6.3249 16.0516
987 1 7.5449 2.8959 18.7268
988 1 8.6108 5.1818 18.7268
989 1 10.2868 5.7918 16.9433
990 1 12.5727 4.7259 16.9433
991 1 11.4298 5.2589 16.0516
992 1 10.8198 6.9349 17.8350
993 1 13.1056 5.8689 17.8350
994 1 12.4956 7.5448 16.0516
995 1 10.8968 4.1159 18.7268
996 1 11.9627 6.4018 18.7268
997 1 13.6387 7.0118 16.9433
998 1 15.9246 5.9459 16.9433
999 1 14.7817 6.4789 16.0516
1000 1 14.1717 8.1549 17.8350
1001 1 16.4575 7.0889 17.8350
1002 1 15.8475 8.7648 16.0516
1003 1 14.2487 5.3359 18.7268
1004 1 15.3146 7.6218 18.7268
1005 1 16.9906 8.2318 16.9433
1006 1 19.2765 7.1659 16.9433
1007 1 18.1335 7.6989 16.0516
1008 1 17.5236 9.3748 17.8350
1009 1 19.8094 8.3089 17.8350
1010 1 19.1994 9.9848 16.0516
1011 1 17.6005 6.5559 18.7268
1012 1 18.6665 8.8418 18.7268
1013 1 20.3424 9.4518 16.9433
1014 1 22.6284 8.3858 16.9433
1015 1 21.4854 8.9189 16.0516
1016 1 20.8754 10.5948 17.8350
1017 1 23.1613 9.5288 17.8350
1018 1 20.9524 7.7759 18.7268
1019 1 22.0184 10.0618 18.7268
1020 1 23.6943 10.6718 16.9433
1021 1 25.9803 9.6058 16.9433
1022 1 24.8373 10.1389 16.0516
1023 1 24.3043 8.9958 18.7268
1024 1 27.6562 10.2158 18.7268
1025 1 1.2971 4.4178 16.9433
1026 1 0.1541 4.9509 16.0516
1027 1 1.8300 5.5608 17.8350
1028 1 1.2200 7.2367 16.0516
1029 1 0.6871 6.0938 18.7268
1030 1 2.3630 6.7037 16.9433
1031 1 4.6490 5.6378 16.9433
1032 1 3.5060 6.1708 16.0516
1033 1 2.8961 7.8467 17.8350
1034 1 5.1819 6.7808 17.8350
1035 1 4.5719 8.4566 16.0516
1036 1 2.9730 5.0278 18.7268
1037 1 4.0390 7.3137 18.7268
1038 1 5.7149 7.9237 16.9433
1039 1 8.0008 6.8578 16.9433
1040 1 6.8579 7.3908 16.0516
1041 1 6.2480 9.0667 17.8350
1042 1 8.5339 8.0008 17.8350
1043 1 7.9239 9.6767 16.0516
1044 1 6.3249 6.2478 18.7268
1045 1 7.3909 8.5337 18.7268
1046 1 9.0668 9.1437 16.9433
1047 1 11.3527 8.0778 16.9433
1048 1 10.2098 8.6108 16.0516
1049 1 9.5998 10.2867 17.8350
1050 1 11.8856 9.2208 17.8350
1051 1 9.6768 7.4678 18.7268
1052 1 10.7427 9.7537 18.7268
1053 1 12.4187 10.3637 16.9433
1054 1 14.7046 9.2978 16.9433
1055 1 13.5617 9.8308 16.0516
1056 1 15.2375 10.4408 17.8350
1057 1 13.0287 8.6878 18.7268
1058 1 18.0565 10.5177 16.9433
1059 1 16.3806 9.9077 18.7268
1060 1 0.0771 7.7697 16.9433