LAMMPS data file from restart file: timestep = 1, procs = 1

1125 atoms

3 atom types

0.0000 10.7785 xlo xhi
0.0000 21.5446 ylo yhi
-50 71.34 zlo zhi

Masses

1 12.01
2 2
3 3

Atoms

1 1 6.1770 0.5329 0.0000
2 1 7.3199 0.0000 0.8918
3 1 7.8529 1.1429 1.7836
4 1 9.5289 1.7529 0.0000
5 1 10.6718 1.2200 0.8918
6 1 10.1389 0.0771 1.7836
7 1 0.5391 0.3790 0.0000
8 1 1.6052 2.6648 0.0000
9 1 3.8910 1.5989 0.0000
10 1 2.7481 2.1319 0.8918
11 1 2.2151 0.9890 1.7836
12 1 3.2810 3.2748 1.7836
13 1 4.9570 3.8848 0.0000
14 1 7.2428 2.8189 0.0000
15 1 5.0340 1.0659 0.8918
16 1 6.0999 3.3519 0.8918
17 1 5.5670 2.2090 1.7836
18 1 6.6329 4.4948 1.7836
19 1 8.3089 5.1048 0.0000
20 1 10.5948 4.0389 0.0000
21 1 8.3859 2.2859 0.8918
22 1 9.4518 4.5719 0.8918
23 1 8.9189 3.4290 1.7836
24 1 9.9849 5.7148 1.7836
25 1 0.3851 6.0168 0.0000
26 1 2.6710 4.9508 0.0000
27 1 0.4621 3.1978 0.8918
28 1 1.5281 5.4838 0.8918
29 1 0.9951 4.3409 1.7836
30 1 2.0610 6.6268 1.7836
31 1 3.7370 7.2368 0.0000
32 1 6.0229 6.1708 0.0000
33 1 3.8140 4.4178 0.8918
34 1 4.8800 6.7038 0.8918
35 1 4.3470 5.5609 1.7836
36 1 5.4129 7.8468 1.7836
37 1 7.0889 8.4568 0.0000
38 1 9.3748 7.3908 0.0000
39 1 7.1659 5.6378 0.8918
40 1 8.2318 7.9237 0.8918
41 1 7.6989 6.7808 1.7836
42 1 8.7648 9.0668 1.7836
43 1 10.4408 9.6768 0.0000
44 1 10.5178 6.8578 0.8918
45 1 1.4510 8.3027 0.0000
46 1 0.3081 8.8357 0.8918
47 1 0.8410 9.9786 1.7836
48 1 2.5171 10.5886 0.0000
49 1 4.8029 9.5227 0.0000
50 1 2.5940 7.7697 0.8918
51 1 3.6600 10.0556 0.8918
52 1 3.1270 8.9127 1.7836
53 1 4.1929 11.1985 1.7836
54 1 5.8690 11.8086 0.0000
55 1 8.1549 10.7427 0.0000
56 1 5.9459 8.9897 0.8918
57 1 7.0119 11.2756 0.8918
58 1 6.4789 10.1327 1.7836
59 1 7.5449 12.4186 1.7836
60 1 9.2208 13.0286 0.0000
61 1 9.2978 10.2097 0.8918
62 1 10.3637 12.4956 0.8918
63 1 9.8308 11.3527 1.7836
64 1 0.2310 11.6546 0.0000
65 1 1.2971 13.9405 0.0000
66 1 3.5829 12.8746 0.0000
67 1 1.3740 11.1216 0.8918
68 1 2.4400 13.4075 0.8918
69 1 1.9070 12.2646 1.7836
70 1 2.9729 14.5504 1.7836
71 1 4.6490 15.1605 0.0000
72 1 6.9349 14.0946 0.0000
73 1 4.7259 12.3416 0.8918
74 1 5.7919 14.6275 0.8918
75 1 5.2589 13.4846 1.7836
76 1 6.3249 15.7704 1.7836
77 1 8.0009 16.3804 0.0000
78 1 10.2867 15.3146 0.0000
79 1 8.0778 13.5616 0.8918
80 1 9.1438 15.8475 0.8918
81 1 8.6108 14.7046 1.7836
82 1 9.6767 16.9904 1.7836
83 1 0.0771 17.2924 0.0000
84 1 2.3629 16.2265 0.0000
85 1 0.1541 14.4735 0.8918
86 1 1.2200 16.7594 0.8918
87 1 0.6871 15.6165 1.7836
88 1 1.7529 17.9023 1.7836
89 1 3.4290 18.5123 0.0000
90 1 5.7149 17.4465 0.0000
91 1 3.5059 15.6935 0.8918
92 1 4.5719 17.9794 0.8918
93 1 4.0389 16.8365 1.7836
94 1 5.1049 19.1223 1.7836
95 1 6.7809 19.7323 0.0000
96 1 9.0667 18.6664 0.0000
97 1 6.8578 16.9134 0.8918
98 1 7.9238 19.1994 0.8918
99 1 7.3908 18.0565 1.7836
100 1 8.4567 20.3423 1.7836
101 1 10.1327 20.9523 0.0000
102 1 10.2097 18.1334 0.8918
103 1 1.1429 19.5783 0.0000
104 1 0.0000 20.1113 0.8918
105 1 0.5330 21.2542 1.7836
106 1 4.4949 20.7984 0.0000
107 1 2.2859 19.0453 0.8918
108 1 3.3519 21.3313 0.8918
109 1 2.8190 20.1884 1.7836
110 1 5.6378 20.2653 0.8918
111 1 6.1770 0.5329 3.5670
112 1 7.3199 0.0000 4.4588
113 1 7.8529 1.1429 5.3506
114 1 8.9959 0.6100 2.6753
115 1 9.5289 1.7529 3.5670
116 1 10.6718 1.2200 4.4588
117 1 10.1389 0.0771 5.3506
118 1 0.5391 0.3790 3.5670
119 1 1.0721 1.5219 2.6753
120 1 3.3581 0.4559 2.6753
121 1 1.6052 2.6648 3.5670
122 1 3.8910 1.5989 3.5670
123 1 2.7481 2.1319 4.4588
124 1 2.2151 0.9890 5.3506
125 1 3.2810 3.2748 5.3506
126 1 4.4240 2.7419 2.6753
127 1 6.7099 1.6759 2.6753
128 1 4.9570 3.8848 3.5670
129 1 7.2428 2.8189 3.5670
130 1 5.0340 1.0659 4.4588
131 1 6.0999 3.3519 4.4588
132 1 5.5670 2.2090 5.3506
133 1 6.6329 4.4948 5.3506
134 1 7.7759 3.9619 2.6753
135 1 10.0618 2.8959 2.6753
136 1 8.3089 5.1048 3.5670
137 1 10.5948 4.0389 3.5670
138 1 8.3859 2.2859 4.4588
139 1 9.4518 4.5719 4.4588
140 1 8.9189 3.4290 5.3506
141 1 9.9849 5.7148 5.3506
142 1 2.1381 3.8078 2.6753
143 1 0.3851 6.0168 3.5670
144 1 2.6710 4.9508 3.5670
145 1 0.4621 3.1978 4.4588
146 1 1.5281 5.4838 4.4588
147 1 0.9951 4.3409 5.3506
148 1 2.0610 6.6268 5.3506
149 1 3.2040 6.0938 2.6753
150 1 5.4900 5.0278 2.6753
151 1 3.7370 7.2368 3.5670
152 1 6.0229 6.1708 3.5670
153 1 3.8140 4.4178 4.4588
154 1 4.8800 6.7038 4.4588
155 1 4.3470 5.5609 5.3506
156 1 5.4129 7.8468 5.3506
157 1 6.5559 7.3138 2.6753
158 1 8.8418 6.2478 2.6753
159 1 7.0889 8.4568 3.5670
160 1 9.3748 7.3908 3.5670
161 1 7.1659 5.6378 4.4588
162 1 8.2318 7.9237 4.4588
163 1 7.6989 6.7808 5.3506
164 1 8.7648 9.0668 5.3506
165 1 9.9078 8.5337 2.6753
166 1 10.4408 9.6768 3.5670
167 1 10.5178 6.8578 4.4588
168 1 0.9181 7.1597 2.6753
169 1 1.4510 8.3027 3.5670
170 1 0.3081 8.8357 4.4588
171 1 0.8410 9.9786 5.3506
172 1 1.9840 9.4456 2.6753
173 1 4.2700 8.3797 2.6753
174 1 2.5171 10.5886 3.5670
175 1 4.8029 9.5227 3.5670
176 1 2.5940 7.7697 4.4588
177 1 3.6600 10.0556 4.4588
178 1 3.1270 8.9127 5.3506
179 1 4.1929 11.1985 5.3506
180 1 5.3359 10.6656 2.6753
181 1 7.6218 9.5997 2.6753
182 1 5.8690 11.8086 3.5670
183 1 8.1549 10.7427 3.5670
184 1 5.9459 8.9897 4.4588
185 1 7.0119 11.2756 4.4588
186 1 6.4789 10.1327 5.3506
187 1 7.5449 12.4186 5.3506
188 1 8.6878 11.8856 2.6753
189 1 9.2208 13.0286 3.5670
190 1 9.2978 10.2097 4.4588
191 1 10.3637 12.4956 4.4588
192 1 9.8308 11.3527 5.3506
193 1 0.2310 11.6546 3.5670
194 1 0.7640 12.7975 2.6753
195 1 3.0500 11.7316 2.6753
196 1 1.2971 13.9405 3.5670
197 1 3.5829 12.8746 3.5670
198 1 1.3740 11.1216 4.4588
199 1 2.4400 13.4075 4.4588
200 1 1.9070 12.2646 5.3506
201 1 2.9729 14.5504 5.3506
202 1 4.1159 14.0175 2.6753
203 1 6.4019 12.9516 2.6753
204 1 4.6490 15.1605 3.5670
205 1 6.9349 14.0946 3.5670
206 1 4.7259 12.3416 4.4588
207 1 5.7919 14.6275 4.4588
208 1 5.2589 13.4846 5.3506
209 1 6.3249 15.7704 5.3506
210 1 7.4678 15.2375 2.6753
211 1 9.7537 14.1716 2.6753
212 1 8.0009 16.3804 3.5670
213 1 10.2867 15.3146 3.5670
214 1 8.0778 13.5616 4.4588
215 1 9.1438 15.8475 4.4588
216 1 8.6108 14.7046 5.3506
217 1 9.6767 16.9904 5.3506
218 1 1.8300 15.0835 2.6753
219 1 0.0771 17.2924 3.5670
220 1 2.3629 16.2265 3.5670
221 1 0.1541 14.4735 4.4588
222 1 1.2200 16.7594 4.4588
223 1 0.6871 15.6165 5.3506
224 1 1.7529 17.9023 5.3506
225 1 2.8959 17.3694 2.6753
226 1 5.1819 16.3035 2.6753
227 1 3.4290 18.5123 3.5670
228 1 5.7149 17.4465 3.5670
229 1 3.5059 15.6935 4.4588
230 1 4.5719 17.9794 4.4588
231 1 4.0389 16.8365 5.3506
232 1 5.1049 19.1223 5.3506
233 1 6.2478 18.5894 2.6753
234 1 8.5338 17.5234 2.6753
235 1 6.7809 19.7323 3.5670
236 1 9.0667 18.6664 3.5670
237 1 6.8578 16.9134 4.4588
238 1 7.9238 19.1994 4.4588
239 1 7.3908 18.0565 5.3506
240 1 8.4567 20.3423 5.3506
241 1 9.5997 19.8094 2.6753
242 1 10.1327 20.9523 3.5670
243 1 10.2097 18.1334 4.4588
244 1 0.6100 18.4353 2.6753
245 1 1.1429 19.5783 3.5670
246 1 0.0000 20.1113 4.4588
247 1 0.5330 21.2542 5.3506
248 1 1.6760 20.7213 2.6753
249 1 3.9619 19.6553 2.6753
250 1 4.4949 20.7984 3.5670
251 1 2.2859 19.0453 4.4588
252 1 3.3519 21.3313 4.4588
253 1 2.8190 20.1884 5.3506
254 1 7.3138 20.8753 2.6753
255 1 5.6378 20.2653 4.4588
256 1 6.1770 0.5329 7.1341
257 1 7.3199 0.0000 8.0258
258 1 7.8529 1.1429 8.9176
259 1 8.9959 0.6100 6.2423
260 1 9.5289 1.7529 7.1341
261 1 10.6718 1.2200 8.0258
262 1 10.1389 0.0771 8.9176
263 1 0.5391 0.3790 7.1341
264 1 1.0721 1.5219 6.2423
265 1 3.3581 0.4559 6.2423
266 1 1.6052 2.6648 7.1341
267 1 3.8910 1.5989 7.1341
268 1 2.7481 2.1319 8.0258
269 1 2.2151 0.9890 8.9176
270 1 3.2810 3.2748 8.9176
271 1 4.4240 2.7419 6.2423
272 1 6.7099 1.6759 6.2423
273 1 4.9570 3.8848 7.1341
274 1 7.2428 2.8189 7.1341
275 1 5.0340 1.0659 8.0258
276 1 6.0999 3.3519 8.0258
277 1 5.5670 2.2090 8.9176
278 1 6.6329 4.4948 8.9176
279 1 7.7759 3.9619 6.2423
280 1 10.0618 2.8959 6.2423
281 1 8.3089 5.1048 7.1341
282 1 10.5948 4.0389 7.1341
283 1 8.3859 2.2859 8.0258
284 1 9.4518 4.5719 8.0258
285 1 8.9189 3.4290 8.9176
286 1 9.9849 5.7148 8.9176
287 1 2.1381 3.8078 6.2423
288 1 0.3851 6.0168 7.1341
289 1 2.6710 4.9508 7.1341
290 1 0.4621 3.1978 8.0258
291 1 1.5281 5.4838 8.0258
292 1 0.9951 4.3409 8.9176
293 1 2.0610 6.6268 8.9176
294 1 3.2040 6.0938 6.2423
295 1 5.4900 5.0278 6.2423
296 1 3.7370 7.2368 7.1341
297 1 6.0229 6.1708 7.1341
298 1 3.8140 4.4178 8.0258
299 1 4.8800 6.7038 8.0258
300 1 4.3470 5.5609 8.9176
301 1 5.4129 7.8468 8.9176
302 1 6.5559 7.3138 6.2423
303 1 8.8418 6.2478 6.2423
304 1 7.0889 8.4568 7.1341
305 1 9.3748 7.3908 7.1341
306 1 7.1659 5.6378 8.0258
307 1 8.2318 7.9237 8.0258
308 1 7.6989 6.7808 8.9176
309 1 8.7648 9.0668 8.9176
310 1 9.9078 8.5337 6.2423
311 1 10.4408 9.6768 7.1341
312 1 10.5178 6.8578 8.0258
313 1 0.9181 7.1597 6.2423
314 1 1.4510 8.3027 7.1341
315 1 0.3081 8.8357 8.0258
316 1 0.8410 9.9786 8.9176
317 1 1.9840 9.4456 6.2423
318 1 4.2700 8.3797 6.2423
319 1 2.5171 10.5886 7.1341
320 1 4.8029 9.5227 7.1341
321 1 2.5940 7.7697 8.0258
322 1 3.6600 10.0556 8.0258
323 1 3.1270 8.9127 8.9176
324 1 4.1929 11.1985 8.9176
325 1 5.3359 10.6656 6.2423
326 1 7.6218 9.5997 6.2423
327 1 5.8690 11.8086 7.1341
328 1 8.1549 10.7427 7.1341
329 1 5.9459 8.9897 8.0258
330 1 7.0119 11.2756 8.0258
331 1 6.4789 10.1327 8.9176
332 1 7.5449 12.4186 8.9176
333 1 8.6878 11.8856 6.2423
334 1 9.2208 13.0286 7.1341
335 1 9.2978 10.2097 8.0258
336 1 10.3637 12.4956 8.0258
337 1 9.8308 11.3527 8.9176
338 1 0.2310 11.6546 7.1341
339 1 0.7640 12.7975 6.2423
340 1 3.0500 11.7316 6.2423
341 1 1.2971 13.9405 7.1341
342 1 3.5829 12.8746 7.1341
343 1 1.3740 11.1216 8.0258
344 1 2.4400 13.4075 8.0258
345 1 1.9070 12.2646 8.9176
346 1 2.9729 14.5504 8.9176
347 1 4.1159 14.0175 6.2423
348 1 6.4019 12.9516 6.2423
349 1 4.6490 15.1605 7.1341
350 1 6.9349 14.0946 7.1341
351 1 4.7259 12.3416 8.0258
352 1 5.7919 14.6275 8.0258
353 1 5.2589 13.4846 8.9176
354 1 6.3249 15.7704 8.9176
355 1 7.4678 15.2375 6.2423
356 1 9.7537 14.1716 6.2423
357 1 8.0009 16.3804 7.1341
358 1 10.2867 15.3146 7.1341
359 1 8.0778 13.5616 8.0258
360 1 9.1438 15.8475 8.0258
361 1 8.6108 14.7046 8.9176
362 1 9.6767 16.9904 8.9176
363 1 1.8300 15.0835 6.2423
364 1 0.0771 17.2924 7.1341
365 1 2.3629 16.2265 7.1341
366 1 0.1541 14.4735 8.0258
367 1 1.2200 16.7594 8.0258
368 1 0.6871 15.6165 8.9176
369 1 1.7529 17.9023 8.9176
370 1 2.8959 17.3694 6.2423
371 1 5.1819 16.3035 6.2423
372 1 3.4290 18.5123 7.1341
373 1 5.7149 17.4465 7.1341
374 1 3.5059 15.6935 8.0258
375 1 4.5719 17.9794 8.0258
376 1 4.0389 16.8365 8.9176
377 1 5.1049 19.1223 8.9176
378 1 6.2478 18.5894 6.2423
379 1 8.5338 17.5234 6.2423
380 1 6.7809 19.7323 7.1341
381 1 9.0667 18.6664 7.1341
382 1 6.8578 16.9134 8.0258
383 1 7.9238 19.1994 8.0258
384 1 7.3908 18.0565 8.9176
385 1 8.4567 20.3423 8.9176
386 1 9.5997 19.8094 6.2423
387 1 10.1327 20.9523 7.1341
388 1 10.2097 18.1334 8.0258
389 1 0.6100 18.4353 6.2423
390 1 1.1429 19.5783 7.1341
391 1 0.0000 20.1113 8.0258
392 1 0.5330 21.2542 8.9176
393 1 1.6760 20.7213 6.2423
394 1 3.9619 19.6553 6.2423
395 1 4.4949 20.7984 7.1341
396 1 2.2859 19.0453 8.0258
397 1 3.3519 21.3313 8.0258
398 1 2.8190 20.1884 8.9176
399 1 7.3138 20.8753 6.2423
400 1 5.6378 20.2653 8.0258
401 1 6.1770 0.5329 10.7010
402 1 7.3199 0.0000 11.5928
403 1 8.9959 0.6100 9.8093
404 1 9.5289 1.7529 10.7010
405 1 10.6718 1.2200 11.5928
406 1 0.5391 0.3790 10.7010
407 1 1.0721 1.5219 9.8093
408 1 3.3581 0.4559 9.8093
409 1 1.6052 2.6648 10.7010
410 1 3.8910 1.5989 10.7010
411 1 2.7481 2.1319 11.5928
412 1 4.4240 2.7419 9.8093
413 1 6.7099 1.6759 9.8093
414 1 4.9570 3.8848 10.7010
415 1 7.2428 2.8189 10.7010
416 1 5.0340 1.0659 11.5928
417 1 6.0999 3.3519 11.5928
418 1 7.7759 3.9619 9.8093
419 1 10.0618 2.8959 9.8093
420 1 8.3089 5.1048 10.7010
421 1 10.5948 4.0389 10.7010
422 1 8.3859 2.2859 11.5928
423 1 9.4518 4.5719 11.5928
424 1 2.1381 3.8078 9.8093
425 1 0.3851 6.0168 10.7010
426 1 2.6710 4.9508 10.7010
427 1 0.4621 3.1978 11.5928
428 1 1.5281 5.4838 11.5928
429 1 3.2040 6.0938 9.8093
430 1 5.4900 5.0278 9.8093
431 1 3.7370 7.2368 10.7010
432 1 6.0229 6.1708 10.7010
433 1 3.8140 4.4178 11.5928
434 1 4.8800 6.7038 11.5928
435 1 6.5559 7.3138 9.8093
436 1 8.8418 6.2478 9.8093
437 1 7.0889 8.4568 10.7010
438 1 9.3748 7.3908 10.7010
439 1 7.1659 5.6378 11.5928
440 1 8.2318 7.9237 11.5928
441 1 9.9078 8.5337 9.8093
442 1 10.4408 9.6768 10.7010
443 1 10.5178 6.8578 11.5928
444 1 0.9181 7.1597 9.8093
445 1 1.4510 8.3027 10.7010
446 1 0.3081 8.8357 11.5928
447 1 1.9840 9.4456 9.8093
448 1 4.2700 8.3797 9.8093
449 1 2.5171 10.5886 10.7010
450 1 4.8029 9.5227 10.7010
451 1 2.5940 7.7697 11.5928
452 1 3.6600 10.0556 11.5928
453 1 5.3359 10.6656 9.8093
454 1 7.6218 9.5997 9.8093
455 1 5.8690 11.8086 10.7010
456 1 8.1549 10.7427 10.7010
457 1 5.9459 8.9897 11.5928
458 1 7.0119 11.2756 11.5928
459 1 8.6878 11.8856 9.8093
460 1 9.2208 13.0286 10.7010
461 1 9.2978 10.2097 11.5928
462 1 10.3637 12.4956 11.5928
463 1 0.2310 11.6546 10.7010
464 1 0.7640 12.7975 9.8093
465 1 3.0500 11.7316 9.8093
466 1 1.2971 13.9405 10.7010
467 1 3.5829 12.8746 10.7010
468 1 1.3740 11.1216 11.5928
469 1 2.4400 13.4075 11.5928
470 1 4.1159 14.0175 9.8093
471 1 6.4019 12.9516 9.8093
472 1 4.6490 15.1605 10.7010
473 1 6.9349 14.0946 10.7010
474 1 4.7259 12.3416 11.5928
475 1 5.7919 14.6275 11.5928
476 1 7.4678 15.2375 9.8093
477 1 9.7537 14.1716 9.8093
478 1 8.0009 16.3804 10.7010
479 1 10.2867 15.3146 10.7010
480 1 8.0778 13.5616 11.5928
481 1 9.1438 15.8475 11.5928
482 1 1.8300 15.0835 9.8093
483 1 0.0771 17.2924 10.7010
484 1 2.3629 16.2265 10.7010
485 1 0.1541 14.4735 11.5928
486 1 1.2200 16.7594 11.5928
487 1 2.8959 17.3694 9.8093
488 1 5.1819 16.3035 9.8093
489 1 3.4290 18.5123 10.7010
490 1 5.7149 17.4465 10.7010
491 1 3.5059 15.6935 11.5928
492 1 4.5719 17.9794 11.5928
493 1 6.2478 18.5894 9.8093
494 1 8.5338 17.5234 9.8093
495 1 6.7809 19.7323 10.7010
496 1 9.0667 18.6664 10.7010
497 1 6.8578 16.9134 11.5928
498 1 7.9238 19.1994 11.5928
499 1 9.5997 19.8094 9.8093
500 1 10.1327 20.9523 10.7010
501 1 10.2097 18.1334 11.5928
502 1 0.6100 18.4353 9.8093
503 1 1.1429 19.5783 10.7010
504 1 0.0000 20.1113 11.5928
505 1 1.6760 20.7213 9.8093
506 1 3.9619 19.6553 9.8093
507 1 4.4949 20.7984 10.7010
508 1 2.2859 19.0453 11.5928
509 1 3.3519 21.3313 11.5928
510 1 7.3138 20.8753 9.8093
511 1 5.6378 20.2653 11.5928
512 1 6.1770 0.5329 14.2680
513 1 7.8529 1.1429 12.4846
514 1 7.3199 0.0000 15.1598
515 1 8.9959 0.6100 13.3763
516 1 10.1389 0.0771 12.4846
517 1 9.5289 1.7529 14.2680
518 1 10.6718 1.2200 15.1598
519 1 0.5391 0.3790 14.2680
520 1 1.0721 1.5219 13.3763
521 1 3.3581 0.4559 13.3763
522 1 2.2151 0.9890 12.4846
523 1 1.6052 2.6648 14.2680
524 1 3.8910 1.5989 14.2680
525 1 3.2810 3.2748 12.4846
526 1 2.7481 2.1319 15.1598
527 1 4.4240 2.7419 13.3763
528 1 6.7099 1.6759 13.3763
529 1 5.5670 2.2090 12.4846
530 1 4.9570 3.8848 14.2680
531 1 7.2428 2.8189 14.2680
532 1 6.6329 4.4948 12.4846
533 1 5.0340 1.0659 15.1598
534 1 6.0999 3.3519 15.1598
535 1 7.7759 3.9619 13.3763
536 1 10.0618 2.8959 13.3763
537 1 8.9189 3.4290 12.4846
538 1 8.3089 5.1048 14.2680
539 1 10.5948 4.0389 14.2680
540 1 9.9849 5.7148 12.4846
541 1 8.3859 2.2859 15.1598
542 1 9.4518 4.5719 15.1598
543 1 2.1381 3.8078 13.3763
544 1 0.9951 4.3409 12.4846
545 1 0.3851 6.0168 14.2680
546 1 2.6710 4.9508 14.2680
547 1 2.0610 6.6268 12.4846
548 1 0.4621 3.1978 15.1598
549 1 1.5281 5.4838 15.1598
550 1 3.2040 6.0938 13.3763
551 1 5.4900 5.0278 13.3763
552 1 4.3470 5.5609 12.4846
553 1 3.7370 7.2368 14.2680
554 1 6.0229 6.1708 14.2680
555 1 5.4129 7.8468 12.4846
556 1 3.8140 4.4178 15.1598
557 1 4.8800 6.7038 15.1598
558 1 6.5559 7.3138 13.3763
559 1 8.8418 6.2478 13.3763
560 1 7.6989 6.7808 12.4846
561 1 7.0889 8.4568 14.2680
562 1 9.3748 7.3908 14.2680
563 1 8.7648 9.0668 12.4846
564 1 7.1659 5.6378 15.1598
565 1 8.2318 7.9237 15.1598
566 1 9.9078 8.5337 13.3763
567 1 10.4408 9.6768 14.2680
568 1 10.5178 6.8578 15.1598
569 1 0.9181 7.1597 13.3763
570 1 1.4510 8.3027 14.2680
571 1 0.8410 9.9786 12.4846
572 1 0.3081 8.8357 15.1598
573 1 1.9840 9.4456 13.3763
574 1 4.2700 8.3797 13.3763
575 1 3.1270 8.9127 12.4846
576 1 2.5171 10.5886 14.2680
577 1 4.8029 9.5227 14.2680
578 1 4.1929 11.1985 12.4846
579 1 2.5940 7.7697 15.1598
580 1 3.6600 10.0556 15.1598
581 1 5.3359 10.6656 13.3763
582 1 7.6218 9.5997 13.3763
583 1 6.4789 10.1327 12.4846
584 1 5.8690 11.8086 14.2680
585 1 8.1549 10.7427 14.2680
586 1 7.5449 12.4186 12.4846
587 1 5.9459 8.9897 15.1598
588 1 7.0119 11.2756 15.1598
589 1 8.6878 11.8856 13.3763
590 1 9.8308 11.3527 12.4846
591 1 9.2208 13.0286 14.2680
592 1 9.2978 10.2097 15.1598
593 1 10.3637 12.4956 15.1598
594 1 0.2310 11.6546 14.2680
595 1 0.7640 12.7975 13.3763
596 1 3.0500 11.7316 13.3763
597 1 1.9070 12.2646 12.4846
598 1 1.2971 13.9405 14.2680
599 1 3.5829 12.8746 14.2680
600 1 2.9729 14.5504 12.4846
601 1 1.3740 11.1216 15.1598
602 1 2.4400 13.4075 15.1598
603 1 4.1159 14.0175 13.3763
604 1 6.4019 12.9516 13.3763
605 1 5.2589 13.4846 12.4846
606 1 4.6490 15.1605 14.2680
607 1 6.9349 14.0946 14.2680
608 1 6.3249 15.7704 12.4846
609 1 4.7259 12.3416 15.1598
610 1 5.7919 14.6275 15.1598
611 1 7.4678 15.2375 13.3763
612 1 9.7537 14.1716 13.3763
613 1 8.6108 14.7046 12.4846
614 1 8.0009 16.3804 14.2680
615 1 10.2867 15.3146 14.2680
616 1 9.6767 16.9904 12.4846
617 1 8.0778 13.5616 15.1598
618 1 9.1438 15.8475 15.1598
619 1 1.8300 15.0835 13.3763
620 1 0.6871 15.6165 12.4846
621 1 0.0771 17.2924 14.2680
622 1 2.3629 16.2265 14.2680
623 1 1.7529 17.9023 12.4846
624 1 0.1541 14.4735 15.1598
625 1 1.2200 16.7594 15.1598
626 1 2.8959 17.3694 13.3763
627 1 5.1819 16.3035 13.3763
628 1 4.0389 16.8365 12.4846
629 1 3.4290 18.5123 14.2680
630 1 5.7149 17.4465 14.2680
631 1 5.1049 19.1223 12.4846
632 1 3.5059 15.6935 15.1598
633 1 4.5719 17.9794 15.1598
634 1 6.2478 18.5894 13.3763
635 1 8.5338 17.5234 13.3763
636 1 7.3908 18.0565 12.4846
637 1 6.7809 19.7323 14.2680
638 1 9.0667 18.6664 14.2680
639 1 8.4567 20.3423 12.4846
640 1 6.8578 16.9134 15.1598
641 1 7.9238 19.1994 15.1598
642 1 9.5997 19.8094 13.3763
643 1 10.1327 20.9523 14.2680
644 1 10.2097 18.1334 15.1598
645 1 0.6100 18.4353 13.3763
646 1 1.1429 19.5783 14.2680
647 1 0.5330 21.2542 12.4846
648 1 0.0000 20.1113 15.1598
649 1 1.6760 20.7213 13.3763
650 1 3.9619 19.6553 13.3763
651 1 2.8190 20.1884 12.4846
652 1 4.4949 20.7984 14.2680
653 1 2.2859 19.0453 15.1598
654 1 3.3519 21.3313 15.1598
655 1 7.3138 20.8753 13.3763
656 1 5.6378 20.2653 15.1598
657 1 6.1770 0.5329 17.8350
658 1 7.8529 1.1429 16.0516
659 1 7.3199 0.0000 18.7268
660 1 8.9959 0.6100 16.9433
661 1 10.1389 0.0771 16.0516
662 1 9.5289 1.7529 17.8350
663 1 10.6718 1.2200 18.7268
664 1 0.5391 0.3790 17.8350
665 1 1.0721 1.5219 16.9433
666 1 3.3581 0.4559 16.9433
667 1 2.2151 0.9890 16.0516
668 1 1.6052 2.6648 17.8350
669 1 3.8910 1.5989 17.8350
670 1 3.2810 3.2748 16.0516
671 1 2.7481 2.1319 18.7268
672 1 4.4240 2.7419 16.9433
673 1 6.7099 1.6759 16.9433
674 1 5.5670 2.2090 16.0516
675 1 4.9570 3.8848 17.8350
676 1 7.2428 2.8189 17.8350
677 1 6.6329 4.4948 16.0516
678 1 5.0340 1.0659 18.7268
679 1 6.0999 3.3519 18.7268
680 1 7.7759 3.9619 16.9433
681 1 10.0618 2.8959 16.9433
682 1 8.9189 3.4290 16.0516
683 1 8.3089 5.1048 17.8350
684 1 10.5948 4.0389 17.8350
685 1 9.9849 5.7148 16.0516
686 1 8.3859 2.2859 18.7268
687 1 9.4518 4.5719 18.7268
688 1 2.1381 3.8078 16.9433
689 1 0.9951 4.3409 16.0516
690 1 0.3851 6.0168 17.8350
691 1 2.6710 4.9508 17.8350
692 1 2.0610 6.6268 16.0516
693 1 0.4621 3.1978 18.7268
694 1 1.5281 5.4838 18.7268
695 1 3.2040 6.0938 16.9433
696 1 5.4900 5.0278 16.9433
697 1 4.3470 5.5609 16.0516
698 1 3.7370 7.2368 17.8350
699 1 6.0229 6.1708 17.8350
700 1 5.4129 7.8468 16.0516
701 1 3.8140 4.4178 18.7268
702 1 4.8800 6.7038 18.7268
703 1 6.5559 7.3138 16.9433
704 1 8.8418 6.2478 16.9433
705 1 7.6989 6.7808 16.0516
706 1 7.0889 8.4568 17.8350
707 1 9.3748 7.3908 17.8350
708 1 8.7648 9.0668 16.0516
709 1 7.1659 5.6378 18.7268
710 1 8.2318 7.9237 18.7268
711 1 9.9078 8.5337 16.9433
712 1 10.4408 9.6768 17.8350
713 1 10.5178 6.8578 18.7268
714 1 0.9181 7.1597 16.9433
715 1 1.4510 8.3027 17.8350
716 1 0.8410 9.9786 16.0516
717 1 0.3081 8.8357 18.7268
718 1 1.9840 9.4456 16.9433
719 1 4.2700 8.3797 16.9433
720 1 3.1270 8.9127 16.0516
721 1 2.5171 10.5886 17.8350
722 1 4.8029 9.5227 17.8350
723 1 4.1929 11.1985 16.0516
724 1 2.5940 7.7697 18.7268
725 1 3.6600 10.0556 18.7268
726 1 5.3359 10.6656 16.9433
727 1 7.6218 9.5997 16.9433
728 1 6.4789 10.1327 16.0516
729 1 5.8690 11.8086 17.8350
730 1 8.1549 10.7427 17.8350
731 1 7.5449 12.4186 16.0516
732 1 5.9459 8.9897 18.7268
733 1 7.0119 11.2756 18.7268
734 1 8.6878 11.8856 16.9433
735 1 9.8308 11.3527 16.0516
736 1 9.2208 13.0286 17.8350
737 1 9.2978 10.2097 18.7268
738 1 10.3637 12.4956 18.7268
739 1 0.2310 11.6546 17.8350
740 1 0.7640 12.7975 16.9433
741 1 3.0500 11.7316 16.9433
742 1 1.9070 12.2646 16.0516
743 1 1.2971 13.9405 17.8350
744 1 3.5829 12.8746 17.8350
745 1 2.9729 14.5504 16.0516
746 1 1.3740 11.1216 18.7268
747 1 2.4400 13.4075 18.7268
748 1 4.1159 14.0175 16.9433
749 1 6.4019 12.9516 16.9433
750 1 5.2589 13.4846 16.0516
751 1 4.6490 15.1605 17.8350
752 1 6.9349 14.0946 17.8350
753 1 6.3249 15.7704 16.0516
754 1 4.7259 12.3416 18.7268
755 1 5.7919 14.6275 18.7268
756 1 7.4678 15.2375 16.9433
757 1 9.7537 14.1716 16.9433
758 1 8.6108 14.7046 16.0516
759 1 8.0009 16.3804 17.8350
760 1 10.2867 15.3146 17.8350
761 1 9.6767 16.9904 16.0516
762 1 8.0778 13.5616 18.7268
763 1 9.1438 15.8475 18.7268
764 1 1.8300 15.0835 16.9433
765 1 0.6871 15.6165 16.0516
766 1 0.0771 17.2924 17.8350
767 1 2.3629 16.2265 17.8350
768 1 1.7529 17.9023 16.0516
769 1 0.1541 14.4735 18.7268
770 1 1.2200 16.7594 18.7268
771 1 2.8959 17.3694 16.9433
772 1 5.1819 16.3035 16.9433
773 1 4.0389 16.8365 16.0516
774 1 3.4290 18.5123 17.8350
775 1 5.7149 17.4465 17.8350
776 1 5.1049 19.1223 16.0516
777 1 3.5059 15.6935 18.7268
778 1 4.5719 17.9794 18.7268
779 1 6.2478 18.5894 16.9433
780 1 8.5338 17.5234 16.9433
781 1 7.3908 18.0565 16.0516
782 1 6.7809 19.7323 17.8350
783 1 9.0667 18.6664 17.8350
784 1 8.4567 20.3423 16.0516
785 1 6.8578 16.9134 18.7268
786 1 7.9238 19.1994 18.7268
787 1 9.5997 19.8094 16.9433
788 1 10.1327 20.9523 17.8350
789 1 10.2097 18.1334 18.7268
790 1 0.6100 18.4353 16.9433
791 1 1.1429 19.5783 17.8350
792 1 0.5330 21.2542 16.0516
793 1 0.0000 20.1113 18.7268
794 1 1.6760 20.7213 16.9433
795 1 3.9619 19.6553 16.9433
796 1 2.8190 20.1884 16.0516
797 1 4.4949 20.7984 17.8350
798 1 2.2859 19.0453 18.7268
799 1 3.3519 21.3313 18.7268
800 1 7.3138 20.8753 16.9433
801 1 5.6378 20.2653 18.7268
802 1 6.1770 0.5329 21.4020
803 1 7.8529 1.1429 19.6186
804 1 8.9959 0.6100 20.5103
805 1 10.1389 0.0771 19.6186
806 1 9.5289 1.7529 21.4020
807 1 0.5391 0.3790 21.4020
808 1 1.0721 1.5219 20.5103
809 1 3.3581 0.4559 20.5103
810 1 2.2151 0.9890 19.6186
811 1 1.6052 2.6648 21.4020
812 1 3.8910 1.5989 21.4020
813 1 3.2810 3.2748 19.6186
814 1 4.4240 2.7419 20.5103
815 1 6.7099 1.6759 20.5103
816 1 5.5670 2.2090 19.6186
817 1 4.9570 3.8848 21.4020
818 1 7.2428 2.8189 21.4020
819 1 6.6329 4.4948 19.6186
820 1 7.7759 3.9619 20.5103
821 1 10.0618 2.8959 20.5103
822 1 8.9189 3.4290 19.6186
823 1 8.3089 5.1048 21.4020
824 1 10.5948 4.0389 21.4020
825 1 9.9849 5.7148 19.6186
826 1 2.1381 3.8078 20.5103
827 1 0.9951 4.3409 19.6186
828 1 0.3851 6.0168 21.4020
829 1 2.6710 4.9508 21.4020
830 1 2.0610 6.6268 19.6186
831 1 3.2040 6.0938 20.5103
832 1 5.4900 5.0278 20.5103
833 1 4.3470 5.5609 19.6186
834 1 3.7370 7.2368 21.4020
835 1 6.0229 6.1708 21.4020
836 1 5.4129 7.8468 19.6186
837 1 6.5559 7.3138 20.5103
838 1 8.8418 6.2478 20.5103
839 1 7.6989 6.7808 19.6186
840 1 7.0889 8.4568 21.4020
841 1 9.3748 7.3908 21.4020
842 1 8.7648 9.0668 19.6186
843 1 9.9078 8.5337 20.5103
844 1 10.4408 9.6768 21.4020
845 1 0.9181 7.1597 20.5103
846 1 1.4510 8.3027 21.4020
847 1 0.8410 9.9786 19.6186
848 1 1.9840 9.4456 20.5103
849 1 4.2700 8.3797 20.5103
850 1 3.1270 8.9127 19.6186
851 1 2.5171 10.5886 21.4020
852 1 4.8029 9.5227 21.4020
853 1 4.1929 11.1985 19.6186
854 1 5.3359 10.6656 20.5103
855 1 7.6218 9.5997 20.5103
856 1 6.4789 10.1327 19.6186
857 1 5.8690 11.8086 21.4020
858 1 8.1549 10.7427 21.4020
859 1 7.5449 12.4186 19.6186
860 1 8.6878 11.8856 20.5103
861 1 9.8308 11.3527 19.6186
862 1 9.2208 13.0286 21.4020
863 1 0.2310 11.6546 21.4020
864 1 0.7640 12.7975 20.5103
865 1 3.0500 11.7316 20.5103
866 1 1.9070 12.2646 19.6186
867 1 1.2971 13.9405 21.4020
868 1 3.5829 12.8746 21.4020
869 1 2.9729 14.5504 19.6186
870 1 4.1159 14.0175 20.5103
871 1 6.4019 12.9516 20.5103
872 1 5.2589 13.4846 19.6186
873 1 4.6490 15.1605 21.4020
874 1 6.9349 14.0946 21.4020
875 1 6.3249 15.7704 19.6186
876 1 7.4678 15.2375 20.5103
877 1 9.7537 14.1716 20.5103
878 1 8.6108 14.7046 19.6186
879 1 8.0009 16.3804 21.4020
880 1 10.2867 15.3146 21.4020
881 1 9.6767 16.9904 19.6186
882 1 1.8300 15.0835 20.5103
883 1 0.6871 15.6165 19.6186
884 1 0.0771 17.2924 21.4020
885 1 2.3629 16.2265 21.4020
886 1 1.7529 17.9023 19.6186
887 1 2.8959 17.3694 20.5103
888 1 5.1819 16.3035 20.5103
889 1 4.0389 16.8365 19.6186
890 1 3.4290 18.5123 21.4020
891 1 5.7149 17.4465 21.4020
892 1 5.1049 19.1223 19.6186
893 1 6.2478 18.5894 20.5103
894 1 8.5338 17.5234 20.5103
895 1 7.3908 18.0565 19.6186
896 1 6.7809 19.7323 21.4020
897 1 9.0667 18.6664 21.4020
898 1 8.4567 20.3423 19.6186
899 1 9.5997 19.8094 20.5103
900 1 10.1327 20.9523 21.4020
901 1 0.6100 18.4353 20.5103
902 1 1.1429 19.5783 21.4020
903 1 0.5330 21.2542 19.6186
904 1 1.6760 20.7213 20.5103
905 1 3.9619 19.6553 20.5103
906 1 2.8190 20.1884 19.6186
907 1 4.4949 20.7984 21.4020
908 1 7.3138 20.8753 20.5103
909 1 7.3199 0.0000 22.2938
910 1 6.1770 0.5329 24.9690
911 1 7.8529 1.1429 23.1856
912 1 8.9959 0.6100 24.0773
913 1 10.6718 1.2200 22.2938
914 1 10.1389 0.0771 23.1856
915 1 9.5289 1.7529 24.9690
916 1 0.5391 0.3790 24.9690
917 1 1.0721 1.5219 24.0773
918 1 3.3581 0.4559 24.0773
919 1 2.7481 2.1319 22.2938
920 1 2.2151 0.9890 23.1856
921 1 1.6052 2.6648 24.9690
922 1 3.8910 1.5989 24.9690
923 1 3.2810 3.2748 23.1856
924 1 5.0340 1.0659 22.2938
925 1 4.4240 2.7419 24.0773
926 1 6.7099 1.6759 24.0773
927 1 6.0999 3.3519 22.2938
928 1 5.5670 2.2090 23.1856
929 1 4.9570 3.8848 24.9690
930 1 7.2428 2.8189 24.9690
931 1 6.6329 4.4948 23.1856
932 1 8.3859 2.2859 22.2938
933 1 7.7759 3.9619 24.0773
934 1 10.0618 2.8959 24.0773
935 1 9.4518 4.5719 22.2938
936 1 8.9189 3.4290 23.1856
937 1 8.3089 5.1048 24.9690
938 1 10.5948 4.0389 24.9690
939 1 9.9849 5.7148 23.1856
940 1 0.4621 3.1978 22.2938
941 1 2.1381 3.8078 24.0773
942 1 1.5281 5.4838 22.2938
943 1 0.9951 4.3409 23.1856
944 1 0.3851 6.0168 24.9690
945 1 2.6710 4.9508 24.9690
946 1 2.0610 6.6268 23.1856
947 1 3.8140 4.4178 22.2938
948 1 3.2040 6.0938 24.0773
949 1 5.4900 5.0278 24.0773
950 1 4.8800 6.7038 22.2938
951 1 4.3470 5.5609 23.1856
952 1 3.7370 7.2368 24.9690
953 1 6.0229 6.1708 24.9690
954 1 5.4129 7.8468 23.1856
955 1 7.1659 5.6378 22.2938
956 1 6.5559 7.3138 24.0773
957 1 8.8418 6.2478 24.0773
958 1 8.2318 7.9237 22.2938
959 1 7.6989 6.7808 23.1856
960 1 7.0889 8.4568 24.9690
961 1 9.3748 7.3908 24.9690
962 1 8.7648 9.0668 23.1856
963 1 10.5178 6.8578 22.2938
964 1 9.9078 8.5337 24.0773
965 1 10.4408 9.6768 24.9690
966 1 0.9181 7.1597 24.0773
967 1 0.3081 8.8357 22.2938
968 1 1.4510 8.3027 24.9690
969 1 0.8410 9.9786 23.1856
970 1 2.5940 7.7697 22.2938
971 1 1.9840 9.4456 24.0773
972 1 4.2700 8.3797 24.0773
973 1 3.6600 10.0556 22.2938
974 1 3.1270 8.9127 23.1856
975 1 2.5171 10.5886 24.9690
976 1 4.8029 9.5227 24.9690
977 1 4.1929 11.1985 23.1856
978 1 5.9459 8.9897 22.2938
979 1 5.3359 10.6656 24.0773
980 1 7.6218 9.5997 24.0773
981 1 7.0119 11.2756 22.2938
982 1 6.4789 10.1327 23.1856
983 1 5.8690 11.8086 24.9690
984 1 8.1549 10.7427 24.9690
985 1 7.5449 12.4186 23.1856
986 1 9.2978 10.2097 22.2938
987 1 8.6878 11.8856 24.0773
988 1 10.3637 12.4956 22.2938
989 1 9.8308 11.3527 23.1856
990 1 9.2208 13.0286 24.9690
991 1 0.2310 11.6546 24.9690
992 1 1.3740 11.1216 22.2938
993 1 0.7640 12.7975 24.0773
994 1 3.0500 11.7316 24.0773
995 1 2.4400 13.4075 22.2938
996 1 1.9070 12.2646 23.1856
997 1 1.2971 13.9405 24.9690
998 1 3.5829 12.8746 24.9690
999 1 2.9729 14.5504 23.1856
1000 1 4.7259 12.3416 22.2938
1001 1 4.1159 14.0175 24.0773
1002 1 6.4019 12.9516 24.0773
1003 1 5.7919 14.6275 22.2938
1004 1 5.2589 13.4846 23.1856
1005 1 4.6490 15.1605 24.9690
1006 1 6.9349 14.0946 24.9690
1007 1 6.3249 15.7704 23.1856
1008 1 8.0778 13.5616 22.2938
1009 1 7.4678 15.2375 24.0773
1010 1 9.7537 14.1716 24.0773
1011 1 9.1438 15.8475 22.2938
1012 1 8.6108 14.7046 23.1856
1013 1 8.0009 16.3804 24.9690
1014 1 10.2867 15.3146 24.9690
1015 1 9.6767 16.9904 23.1856
1016 1 0.1541 14.4735 22.2938
1017 1 1.8300 15.0835 24.0773
1018 1 1.2200 16.7594 22.2938
1019 1 0.6871 15.6165 23.1856
1020 1 0.0771 17.2924 24.9690
1021 1 2.3629 16.2265 24.9690
1022 1 1.7529 17.9023 23.1856
1023 1 3.5059 15.6935 22.2938
1024 1 2.8959 17.3694 24.0773
1025 1 5.1819 16.3035 24.0773
1026 1 4.5719 17.9794 22.2938
1027 1 4.0389 16.8365 23.1856
1028 1 3.4290 18.5123 24.9690
1029 1 5.7149 17.4465 24.9690
1030 1 5.1049 19.1223 23.1856
1031 1 6.8578 16.9134 22.2938
1032 1 6.2478 18.5894 24.0773
1033 1 8.5338 17.5234 24.0773
1034 1 7.9238 19.1994 22.2938
1035 1 7.3908 18.0565 23.1856
1036 1 6.7809 19.7323 24.9690
1037 1 9.0667 18.6664 24.9690
1038 1 8.4567 20.3423 23.1856
1039 1 10.2097 18.1334 22.2938
1040 1 9.5997 19.8094 24.0773
1041 1 10.1327 20.9523 24.9690
1042 1 0.6100 18.4353 24.0773
1043 1 0.0000 20.1113 22.2938
1044 1 1.1429 19.5783 24.9690
1045 1 0.5330 21.2542 23.1856
1046 1 2.2859 19.0453 22.2938
1047 1 1.6760 20.7213 24.0773
1048 1 3.9619 19.6553 24.0773
1049 1 3.3519 21.3313 22.2938
1050 1 2.8190 20.1884 23.1856
1051 1 4.4949 20.7984 24.9690
1052 1 5.6378 20.2653 22.2938
1053 1 7.3138 20.8753 24.0773
1054 1 7.3199 0.0000 25.8608
1055 1 7.8529 1.1429 26.7526
1056 1 10.6718 1.2200 25.8608
1057 1 10.1389 0.0771 26.7526
1058 1 2.7481 2.1319 25.8608
1059 1 2.2151 0.9890 26.7526