LAMMPS data file from restart file: timestep = 1, procs = 1

8000 atoms

3 atom types

0.0000 35.1260 xlo xhi
0.0000 35.1260 ylo yhi
-50 71.34 zlo zhi

Masses

1 12.01
2 2
3 3

Atoms

1 1 0.0000 0.0000 0.0000
2 1 0.0000 1.7835 1.7835
3 1 1.7835 0.0000 1.7835
4 1 1.7835 1.7835 0.0000
5 1 0.8918 0.8918 0.8918
6 1 2.6752 2.6752 0.8918
7 1 3.5670 0.0000 0.0000
8 1 3.5670 1.7835 1.7835
9 1 5.3505 0.0000 1.7835
10 1 5.3505 1.7835 0.0000
11 1 4.4588 0.8918 0.8918
12 1 6.2422 2.6752 0.8918
13 1 7.1340 0.0000 0.0000
14 1 7.1340 1.7835 1.7835
15 1 8.9175 0.0000 1.7835
16 1 8.9175 1.7835 0.0000
17 1 8.0258 0.8918 0.8918
18 1 9.8092 2.6752 0.8918
19 1 10.7010 0.0000 0.0000
20 1 10.7010 1.7835 1.7835
21 1 12.4845 0.0000 1.7835
22 1 12.4845 1.7835 0.0000
23 1 11.5928 0.8918 0.8918
24 1 13.3763 2.6752 0.8918
25 1 14.2680 0.0000 0.0000
26 1 14.2680 1.7835 1.7835
27 1 16.0515 0.0000 1.7835
28 1 16.0515 1.7835 0.0000
29 1 15.1598 0.8918 0.8918
30 1 16.9432 2.6752 0.8918
31 1 17.8350 0.0000 0.0000
32 1 17.8350 1.7835 1.7835
33 1 19.6185 0.0000 1.7835
34 1 19.6185 1.7835 0.0000
35 1 18.7268 0.8918 0.8918
36 1 20.5102 2.6752 0.8918
37 1 21.4020 0.0000 0.0000
38 1 21.4020 1.7835 1.7835
39 1 23.1855 0.0000 1.7835
40 1 23.1855 1.7835 0.0000
41 1 22.2938 0.8918 0.8918
42 1 24.0772 2.6752 0.8918
43 1 24.9690 0.0000 0.0000
44 1 24.9690 1.7835 1.7835
45 1 26.7525 0.0000 1.7835
46 1 26.7525 1.7835 0.0000
47 1 25.8608 0.8918 0.8918
48 1 27.6442 2.6752 0.8918
49 1 28.5360 0.0000 0.0000
50 1 28.5360 1.7835 1.7835
51 1 30.3195 0.0000 1.7835
52 1 30.3195 1.7835 0.0000
53 1 29.4278 0.8918 0.8918
54 1 31.2112 2.6752 0.8918
55 1 32.1030 0.0000 0.0000
56 1 32.1030 1.7835 1.7835
57 1 33.8865 0.0000 1.7835
58 1 33.8865 1.7835 0.0000
59 1 32.9948 0.8918 0.8918
60 1 34.7782 2.6752 0.8918
61 1 0.0000 3.5670 0.0000
62 1 0.0000 5.3505 1.7835
63 1 1.7835 3.5670 1.7835
64 1 1.7835 5.3505 0.0000
65 1 0.8918 4.4588 0.8918
66 1 2.6752 6.2422 0.8918
67 1 3.5670 3.5670 0.0000
68 1 3.5670 5.3505 1.7835
69 1 5.3505 3.5670 1.7835
70 1 5.3505 5.3505 0.0000
71 1 4.4588 4.4588 0.8918
72 1 6.2422 6.2422 0.8918
73 1 7.1340 3.5670 0.0000
74 1 7.1340 5.3505 1.7835
75 1 8.9175 3.5670 1.7835
76 1 8.9175 5.3505 0.0000
77 1 8.0258 4.4588 0.8918
78 1 9.8092 6.2422 0.8918
79 1 10.7010 3.5670 0.0000
80 1 10.7010 5.3505 1.7835
81 1 12.4845 3.5670 1.7835
82 1 12.4845 5.3505 0.0000
83 1 11.5928 4.4588 0.8918
84 1 13.3763 6.2422 0.8918
85 1 14.2680 3.5670 0.0000
86 1 14.2680 5.3505 1.7835
87 1 16.0515 3.5670 1.7835
88 1 16.0515 5.3505 0.0000
89 1 15.1598 4.4588 0.8918
90 1 16.9432 6.2422 0.8918
91 1 17.8350 3.5670 0.0000
92 1 17.8350 5.3505 1.7835
93 1 19.6185 3.5670 1.7835
94 1 19.6185 5.3505 0.0000
95 1 18.7268 4.4588 0.8918
96 1 20.5102 6.2422 0.8918
97 1 21.4020 3.5670 0.0000
98 1 21.4020 5.3505 1.7835
99 1 23.1855 3.5670 1.7835
100 1 23.1855 5.3505 0.0000
101 1 22.2938 4.4588 0.8918
102 1 24.0772 6.2422 0.8918
103 1 24.9690 3.5670 0.0000
104 1 24.9690 5.3505 1.7835
105 1 26.7525 3.5670 1.7835
106 1 26.7525 5.3505 0.0000
107 1 25.8608 4.4588 0.8918
108 1 27.6442 6.2422 0.8918
109 1 28.5360 3.5670 0.0000
110 1 28.5360 5.3505 1.7835
111 1 30.3195 3.5670 1.7835
112 1 30.3195 5.3505 0.0000
113 1 29.4278 4.4588 0.8918
114 1 31.2112 6.2422 0.8918
115 1 32.1030 3.5670 0.0000
116 1 32.1030 5.3505 1.7835
117 1 33.8865 3.5670 1.7835
118 1 33.8865 5.3505 0.0000
119 1 32.9948 4.4588 0.8918
120 1 34.7782 6.2422 0.8918
121 1 0.0000 7.1340 0.0000
122 1 0.0000 8.9175 1.7835
123 1 1.7835 7.1340 1.7835
124 1 1.7835 8.9175 0.0000
125 1 0.8918 8.0258 0.8918
126 1 2.6752 9.8092 0.8918
127 1 3.5670 7.1340 0.0000
128 1 3.5670 8.9175 1.7835
129 1 5.3505 7.1340 1.7835
130 1 5.3505 8.9175 0.0000
131 1 4.4588 8.0258 0.8918
132 1 6.2422 9.8092 0.8918
133 1 7.1340 7.1340 0.0000
134 1 7.1340 8.9175 1.7835
135 1 8.9175 7.1340 1.7835
136 1 8.9175 8.9175 0.0000
137 1 8.0258 8.0258 0.8918
138 1 9.8092 9.8092 0.8918
139 1 10.7010 7.1340 0.0000
140 1 10.7010 8.9175 1.7835
141 1 12.4845 7.1340 1.7835
142 1 12.4845 8.9175 0.0000
143 1 11.5928 8.0258 0.8918
144 1 13.3763 9.8092 0.8918
145 1 14.2680 7.1340 0.0000
146 1 14.2680 8.9175 1.7835
147 1 16.0515 7.1340 1.7835
148 1 16.0515 8.9175 0.0000
149 1 15.1598 8.0258 0.8918
150 1 16.9432 9.8092 0.8918
151 1 17.8350 7.1340 0.0000
152 1 17.8350 8.9175 1.7835
153 1 19.6185 7.1340 1.7835
154 1 19.6185 8.9175 0.0000
155 1 18.7268 8.0258 0.8918
156 1 20.5102 9.8092 0.8918
157 1 21.4020 7.1340 0.0000
158 1 21.4020 8.9175 1.7835
159 1 23.1855 7.1340 1.7835
160 1 23.1855 8.9175 0.0000
161 1 22.2938 8.0258 0.8918
162 1 24.0772 9.8092 0.8918
163 1 24.9690 7.1340 0.0000
164 1 24.9690 8.9175 1.7835
165 1 26.7525 7.1340 1.7835
166 1 26.7525 8.9175 0.0000
167 1 25.8608 8.0258 0.8918
168 1 27.6442 9.8092 0.8918
169 1 28.5360 7.1340 0.0000
170 1 28.5360 8.9175 1.7835
171 1 30.3195 7.1340 1.7835
172 1 30.3195 8.9175 0.0000
173 1 29.4278 8.0258 0.8918
174 1 31.2112 9.8092 0.8918
175 1 32.1030 7.1340 0.0000
176 1 32.1030 8.9175 1.7835
177 1 33.8865 7.1340 1.7835
178 1 33.8865 8.9175 0.0000
179 1 32.9948 8.0258 0.8918
180 1 34.7782 9.8092 0.8918
181 1 0.0000 10.7010 0.0000
182 1 0.0000 12.4845 1.7835
183 1 1.7835 10.7010 1.7835
184 1 1.7835 12.4845 0.0000
185 1 0.8918 11.5928 0.8918
186 1 2.6752 13.3763 0.8918
187 1 3.5670 10.7010 0.0000
188 1 3.5670 12.4845 1.7835
189 1 5.3505 10.7010 1.7835
190 1 5.3505 12.4845 0.0000
191 1 4.4588 11.5928 0.8918
192 1 6.2422 13.3763 0.8918
193 1 7.1340 10.7010 0.0000
194 1 7.1340 12.4845 1.7835
195 1 8.9175 10.7010 1.7835
196 1 8.9175 12.4845 0.0000
197 1 8.0258 11.5928 0.8918
198 1 9.8092 13.3763 0.8918
199 1 10.7010 10.7010 0.0000
200 1 10.7010 12.4845 1.7835
201 1 12.4845 10.7010 1.7835
202 1 12.4845 12.4845 0.0000
203 1 11.5928 11.5928 0.8918
204 1 13.3763 13.3763 0.8918
205 1 14.2680 10.7010 0.0000
206 1 14.2680 12.4845 1.7835
207 1 16.0515 10.7010 1.7835
208 1 16.0515 12.4845 0.0000
209 1 15.1598 11.5928 0.8918
210 1 16.9432 13.3763 0.8918
211 1 17.8350 10.7010 0.0000
212 1 17.8350 12.4845 1.7835
213 1 19.6185 10.7010 1.7835
214 1 19.6185 12.4845 0.0000
215 1 18.7268 11.5928 0.8918
216 1 20.5102 13.3763 0.8918
217 1 21.4020 10.7010 0.0000
218 1 21.4020 12.4845 1.7835
219 1 23.1855 10.7010 1.7835
220 1 23.1855 12.4845 0.0000
221 1 22.2938 11.5928 0.8918
222 1 24.0772 13.3763 0.8918
223 1 24.9690 10.7010 0.0000
224 1 24.9690 12.4845 1.7835
225 1 26.7525 10.7010 1.7835
226 1 26.7525 12.4845 0.0000
227 1 25.8608 11.5928 0.8918
228 1 27.6442 13.3763 0.8918
229 1 28.5360 10.7010 0.0000
230 1 28.5360 12.4845 1.7835
231 1 30.3195 10.7010 1.7835
232 1 30.3195 12.4845 0.0000
233 1 29.4278 11.5928 0.8918
234 1 31.2112 13.3763 0.8918
235 1 32.1030 10.7010 0.0000
236 1 32.1030 12.4845 1.7835
237 1 33.8865 10.7010 1.7835
238 1 33.8865 12.4845 0.0000
239 1 32.9948 11.5928 0.8918
240 1 34.7782 13.3763 0.8918
241 1 0.0000 14.2680 0.0000
242 1 0.0000 16.0515 1.7835
243 1 1.7835 14.2680 1.7835
244 1 1.7835 16.0515 0.0000
245 1 0.8918 15.1598 0.8918
246 1 2.6752 16.9432 0.8918
247 1 3.5670 14.2680 0.0000
248 1 3.5670 16.0515 1.7835
249 1 5.3505 14.2680 1.7835
250 1 5.3505 16.0515 0.0000
251 1 4.4588 15.1598 0.8918
252 1 6.2422 16.9432 0.8918
253 1 7.1340 14.2680 0.0000
254 1 7.1340 16.0515 1.7835
255 1 8.9175 14.2680 1.7835
256 1 8.9175 16.0515 0.0000
257 1 8.0258 15.1598 0.8918
258 1 9.8092 16.9432 0.8918
259 1 10.7010 14.2680 0.0000
260 1 10.7010 16.0515 1.7835
261 1 12.4845 14.2680 1.7835
262 1 12.4845 16.0515 0.0000
263 1 11.5928 15.1598 0.8918
264 1 13.3763 16.9432 0.8918
265 1 14.2680 14.2680 0.0000
266 1 14.2680 16.0515 1.7835
267 1 16.0515 14.2680 1.7835
268 1 16.0515 16.0515 0.0000
269 1 15.1598 15.1598 0.8918
270 1 16.9432 16.9432 0.8918
271 1 17.8350 14.2680 0.0000
272 1 17.8350 16.0515 1.7835
273 1 19.6185 14.2680 1.7835
274 1 19.6185 16.0515 0.0000
275 1 18.7268 15.1598 0.8918
276 1 20.5102 16.9432 0.8918
277 1 21.4020 14.2680 0.0000
278 1 21.4020 16.0515 1.7835
279 1 23.1855 14.2680 1.7835
280 1 23.1855 16.0515 0.0000
281 1 22.2938 15.1598 0.8918
282 1 24.0772 16.9432 0.8918
283 1 24.9690 14.2680 0.0000
284 1 24.9690 16.0515 1.7835
285 1 26.7525 14.2680 1.7835
286 1 26.7525 16.0515 0.0000
287 1 25.8608 15.1598 0.8918
288 1 27.6442 16.9432 0.8918
289 1 28.5360 14.2680 0.0000
290 1 28.5360 16.0515 1.7835
291 1 30.3195 14.2680 1.7835
292 1 30.3195 16.0515 0.0000
293 1 29.4278 15.1598 0.8918
294 1 31.2112 16.9432 0.8918
295 1 32.1030 14.2680 0.0000
296 1 32.1030 16.0515 1.7835
297 1 33.8865 14.2680 1.7835
298 1 33.8865 16.0515 0.0000
299 1 32.9948 15.1598 0.8918
300 1 34.7782 16.9432 0.8918
301 1 0.0000 17.8350 0.0000
302 1 0.0000 19.6185 1.7835
303 1 1.7835 17.8350 1.7835
304 1 1.7835 19.6185 0.0000
305 1 0.8918 18.7268 0.8918
306 1 2.6752 20.5102 0.8918
307 1 3.5670 17.8350 0.0000
308 1 3.5670 19.6185 1.7835
309 1 5.3505 17.8350 1.7835
310 1 5.3505 19.6185 0.0000
311 1 4.4588 18.7268 0.8918
312 1 6.2422 20.5102 0.8918
313 1 7.1340 17.8350 0.0000
314 1 7.1340 19.6185 1.7835
315 1 8.9175 17.8350 1.7835
316 1 8.9175 19.6185 0.0000
317 1 8.0258 18.7268 0.8918
318 1 9.8092 20.5102 0.8918
319 1 10.7010 17.8350 0.0000
320 1 10.7010 19.6185 1.7835
321 1 12.4845 17.8350 1.7835
322 1 12.4845 19.6185 0.0000
323 1 11.5928 18.7268 0.8918
324 1 13.3763 20.5102 0.8918
325 1 14.2680 17.8350 0.0000
326 1 14.2680 19.6185 1.7835
327 1 16.0515 17.8350 1.7835
328 1 16.0515 19.6185 0.0000
329 1 15.1598 18.7268 0.8918
330 1 16.9432 20.5102 0.8918
331 1 17.8350 17.8350 0.0000
332 1 17.8350 19.6185 1.7835
333 1 19.6185 17.8350 1.7835
334 1 19.6185 19.6185 0.0000
335 1 18.7268 18.7268 0.8918
336 1 20.5102 20.5102 0.8918
337 1 21.4020 17.8350 0.0000
338 1 21.4020 19.6185 1.7835
339 1 23.1855 17.8350 1.7835
340 1 23.1855 19.6185 0.0000
341 1 22.2938 18.7268 0.8918
342 1 24.0772 20.5102 0.8918
343 1 24.9690 17.8350 0.0000
344 1 24.9690 19.6185 1.7835
345 1 26.7525 17.8350 1.7835
346 1 26.7525 19.6185 0.0000
347 1 25.8608 18.7268 0.8918
348 1 27.6442 20.5102 0.8918
349 1 28.5360 17.8350 0.0000
350 1 28.5360 19.6185 1.7835
351 1 30.3195 17.8350 1.7835
352 1 30.3195 19.6185 0.0000
353 1 29.4278 18.7268 0.8918
354 1 31.2112 20.5102 0.8918
355 1 32.1030 17.8350 0.0000
356 1 32.1030 19.6185 1.7835
357 1 33.8865 17.8350 1.7835
358 1 33.8865 19.6185 0.0000
359 1 32.9948 18.7268 0.8918
360 1 34.7782 20.5102 0.8918
361 1 0.0000 21.4020 0.0000
362 1 0.0000 23.1855 1.7835
363 1 1.7835 21.4020 1.7835
364 1 1.7835 23.1855 0.0000
365 1 0.8918 22.2938 0.8918
366 1 2.6752 24.0772 0.8918
367 1 3.5670 21.4020 0.0000
368 1 3.5670 23.1855 1.7835
369 1 5.3505 21.4020 1.7835
370 1 5.3505 23.1855 0.0000
371 1 4.4588 22.2938 0.8918
372 1 6.2422 24.0772 0.8918
373 1 7.1340 21.4020 0.0000
374 1 7.1340 23.1855 1.7835
375 1 8.9175 21.4020 1.7835
376 1 8.9175 23.1855 0.0000
377 1 8.0258 22.2938 0.8918
378 1 9.8092 24.0772 0.8918
379 1 10.7010 21.4020 0.0000
380 1 10.7010 23.1855 1.7835
381 1 12.4845 21.4020 1.7835
382 1 12.4845 23.1855 0.0000
383 1 11.5928 22.2938 0.8918
384 1 13.3763 24.0772 0.8918
385 1 14.2680 21.4020 0.0000
386 1 14.2680 23.1855 1.7835
387 1 16.0515 21.4020 1.7835
388 1 16.0515 23.1855 0.0000
389 1 15.1598 22.2938 0.8918
390 1 16.9432 24.0772 0.8918
391 1 17.8350 21.4020 0.0000
392 1 17.8350 23.1855 1.7835
393 1 19.6185 21.4020 1.7835
394 1 19.6185 23.1855 0.0000
395 1 18.7268 22.2938 0.8918
396 1 20.5102 24.0772 0.8918
397 1 21.4020 21.4020 0.0000
398 1 21.4020 23.1855 1.7835
399 1 23.1855 21.4020 1.7835
400 1 23.1855 23.1855 0.0000
401 1 22.2938 22.2938 0.8918
402 1 24.0772 24.0772 0.8918
403 1 24.9690 21.4020 0.0000
404 1 24.9690 23.1855 1.7835
405 1 26.7525 21.4020 1.7835
406 1 26.7525 23.1855 0.0000
407 1 25.8608 22.2938 0.8918
408 1 27.6442 24.0772 0.8918
409 1 28.5360 21.4020 0.0000
410 1 28.5360 23.1855 1.7835
411 1 30.3195 21.4020 1.7835
412 1 30.3195 23.1855 0.0000
413 1 29.4278 22.2938 0.8918
414 1 31.2112 24.0772 0.8918
415 1 32.1030 21.4020 0.0000
416 1 32.1030 23.1855 1.7835
417 1 33.8865 21.4020 1.7835
418 1 33.8865 23.1855 0.0000
419 1 32.9948 22.2938 0.8918
420 1 34.7782 24.0772 0.8918
421 1 0.0000 24.9690 0.0000
422 1 0.0000 26.7525 1.7835
423 1 1.7835 24.9690 1.7835
424 1 1.7835 26.7525 0.0000
425 1 0.8918 25.8608 0.8918
426 1 2.6752 27.6442 0.8918
427 1 3.5670 24.9690 0.0000
428 1 3.5670 26.7525 1.7835
429 1 5.3505 24.9690 1.7835
430 1 5.3505 26.7525 0.0000
431 1 4.4588 25.8608 0.8918
432 1 6.2422 27.6442 0.8918
433 1 7.1340 24.9690 0.0000
434 1 7.1340 26.7525 1.7835
435 1 8.9175 24.9690 1.7835
436 1 8.9175 26.7525 0.0000
437 1 8.0258 25.8608 0.8918
438 1 9.8092 27.6442 0.8918
439 1 10.7010 24.9690 0.0000
440 1 10.7010 26.7525 1.7835
441 1 12.4845 24.9690 1.7835
442 1 12.4845 26.7525 0.0000
443 1 11.5928 25.8608 0.8918
444 1 13.3763 27.6442 0.8918
445 1 14.2680 24.9690 0.0000
446 1 14.2680 26.7525 1.7835
447 1 16.0515 24.9690 1.7835
448 1 16.0515 26.7525 0.0000
449 1 15.1598 25.8608 0.8918
450 1 16.9432 27.6442 0.8918
451 1 17.8350 24.9690 0.0000
452 1 17.8350 26.7525 1.7835
453 1 19.6185 24.9690 1.7835
454 1 19.6185 26.7525 0.0000
455 1 18.7268 25.8608 0.8918
456 1 20.5102 27.6442 0.8918
457 1 21.4020 24.9690 0.0000
458 1 21.4020 26.7525 1.7835
459 1 23.1855 24.9690 1.7835
460 1 23.1855 26.7525 0.0000
461 1 22.2938 25.8608 0.8918
462 1 24.0772 27.6442 0.8918
463 1 24.9690 24.9690 0.0000
464 1 24.9690 26.7525 1.7835
465 1 26.7525 24.9690 1.7835
466 1 26.7525 26.7525 0.0000
467 1 25.8608 25.8608 0.8918
468 1 27.6442 27.6442 0.8918
469 1 28.5360 24.9690 0.0000
470 1 28.5360 26.7525 1.7835
471 1 30.3195 24.9690 1.7835
472 1 30.3195 26.7525 0.0000
473 1 29.4278 25.8608 0.8918
474 1 31.2112 27.6442 0.8918
475 1 32.1030 24.9690 0.0000
476 1 32.1030 26.7525 1.7835
477 1 33.8865 24.9690 1.7835
478 1 33.8865 26.7525 0.0000
479 1 32.9948 25.8608 0.8918
480 1 34.7782 27.6442 0.8918
481 1 0.0000 28.5360 0.0000
482 1 0.0000 30.3195 1.7835
483 1 1.7835 28.5360 1.7835
484 1 1.7835 30.3195 0.0000
485 1 0.8918 29.4278 0.8918
486 1 2.6752 31.2112 0.8918
487 1 3.5670 28.5360 0.0000
488 1 3.5670 30.3195 1.7835
489 1 5.3505 28.5360 1.7835
490 1 5.3505 30.3195 0.0000
491 1 4.4588 29.4278 0.8918
492 1 6.2422 31.2112 0.8918
493 1 7.1340 28.5360 0.0000
494 1 7.1340 30.3195 1.7835
495 1 8.9175 28.5360 1.7835
496 1 8.9175 30.3195 0.0000
497 1 8.0258 29.4278 0.8918
498 1 9.8092 31.2112 0.8918
499 1 10.7010 28.5360 0.0000
500 1 10.7010 30.3195 1.7835
501 1 12.4845 28.5360 1.7835
502 1 12.4845 30.3195 0.0000
503 1 11.5928 29.4278 0.8918
504 1 13.3763 31.2112 0.8918
505 1 14.2680 28.5360 0.0000
506 1 14.2680 30.3195 1.7835
507 1 16.0515 28.5360 1.7835
508 1 16.0515 30.3195 0.0000
509 1 15.1598 29.4278 0.8918
510 1 16.9432 31.2112 0.8918
511 1 17.8350 28.5360 0.0000
512 1 17.8350 30.3195 1.7835
513 1 19.6185 28.5360 1.7835
514 1 19.6185 30.3195 0.0000
515 1 18.7268 29.4278 0.8918
516 1 20.5102 31.2112 0.8918
517 1 21.4020 28.5360 0.0000
518 1 21.4020 30.3195 1.7835
519 1 23.1855 28.5360 1.7835
520 1 23.1855 30.3195 0.0000
521 1 22.2938 29.4278 0.8918
522 1 24.0772 31.2112 0.8918
523 1 24.9690 28.5360 0.0000
524 1 24.9690 30.3195 1.7835
525 1 26.7525 28.5360 1.7835
526 1 26.7525 30.3195 0.0000
527 1 25.8608 29.4278 0.8918
528 1 27.6442 31.2112 0.8918
529 1 28.5360 28.5360 0.0000
530 1 28.5360 30.3195 1.7835
531 1 30.3195 28.5360 1.7835
532 1 30.3195 30.3195 0.0000
533 1 29.4278 29.4278 0.8918
534 1 31.2112 31.2112 0.8918
535 1 32.1030 28.5360 0.0000
536 1 32.1030 30.3195 1.7835
537 1 33.8865 28.5360 1.7835
538 1 33.8865 30.3195 0.0000
539 1 32.9948 29.4278 0.8918
540 1 34.7782 31.2112 0.8918
541 1 0.0000 32.1030 0.0000
542 1 0.0000 33.8865 1.7835
543 1 1.7835 32.1030 1.7835
544 1 1.7835 33.8865 0.0000
545 1 0.8918 32.9948 0.8918
546 1 2.6752 34.7782 0.8918
547 1 3.5670 32.1030 0.0000
548 1 3.5670 33.8865 1.7835
549 1 5.3505 32.1030 1.7835
550 1 5.3505 33.8865 0.0000
551 1 4.4588 32.9948 0.8918
552 1 6.2422 34.7782 0.8918
553 1 7.1340 32.1030 0.0000
554 1 7.1340 33.8865 1.7835
555 1 8.9175 32.1030 1.7835
556 1 8.9175 33.8865 0.0000
557 1 8.0258 32.9948 0.8918
558 1 9.8092 34.7782 0.8918
559 1 10.7010 32.1030 0.0000
560 1 10.7010 33.8865 1.7835
561 1 12.4845 32.1030 1.7835
562 1 12.4845 33.8865 0.0000
563 1 11.5928 32.9948 0.8918
564 1 13.3763 34.7782 0.8918
565 1 14.2680 32.1030 0.0000
566 1 14.2680 33.8865 1.7835
567 1 16.0515 32.1030 1.7835
568 1 16.0515 33.8865 0.0000
569 1 15.1598 32.9948 0.8918
570 1 16.9432 34.7782 0.8918
571 1 17.8350 32.1030 0.0000
572 1 17.8350 33.8865 1.7835
573 1 19.6185 32.1030 1.7835
574 1 19.6185 33.8865 0.0000
575 1 18.7268 32.9948 0.8918
576 1 20.5102 34.7782 0.8918
577 1 21.4020 32.1030 0.0000
578 1 21.4020 33.8865 1.7835
579 1 23.1855 32.1030 1.7835
580 1 23.1855 33.8865 0.0000
581 1 22.2938 32.9948 0.8918
582 1 24.0772 34.7782 0.8918
583 1 24.9690 32.1030 0.0000
584 1 24.9690 33.8865 1.7835
585 1 26.7525 32.1030 1.7835
586 1 26.7525 33.8865 0.0000
587 1 25.8608 32.9948 0.8918
588 1 27.6442 34.7782 0.8918
589 1 28.5360 32.1030 0.0000
590 1 28.5360 33.8865 1.7835
591 1 30.3195 32.1030 1.7835
592 1 30.3195 33.8865 0.0000
593 1 29.4278 32.9948 0.8918
594 1 31.2112 34.7782 0.8918
595 1 32.1030 32.1030 0.0000
596 1 32.1030 33.8865 1.7835
597 1 33.8865 32.1030 1.7835
598 1 33.8865 33.8865 0.0000
599 1 32.9948 32.9948 0.8918
600 1 34.7782 34.7782 0.8918
601 1 0.8918 2.6752 2.6752
602 1 2.6752 0.8918 2.6752
603 1 0.0000 0.0000 3.5670
604 1 0.0000 1.7835 5.3505
605 1 1.7835 0.0000 5.3505
606 1 1.7835 1.7835 3.5670
607 1 0.8918 0.8918 4.4588
608 1 2.6752 2.6752 4.4588
609 1 4.4588 2.6752 2.6752
610 1 6.2422 0.8918 2.6752
611 1 3.5670 0.0000 3.5670
612 1 3.5670 1.7835 5.3505
613 1 5.3505 0.0000 5.3505
614 1 5.3505 1.7835 3.5670
615 1 4.4588 0.8918 4.4588
616 1 6.2422 2.6752 4.4588
617 1 8.0258 2.6752 2.6752
618 1 9.8092 0.8918 2.6752
619 1 7.1340 0.0000 3.5670
620 1 7.1340 1.7835 5.3505
621 1 8.9175 0.0000 5.3505
622 1 8.9175 1.7835 3.5670
623 1 8.0258 0.8918 4.4588
624 1 9.8092 2.6752 4.4588
625 1 11.5928 2.6752 2.6752
626 1 13.3763 0.8918 2.6752
627 1 10.7010 0.0000 3.5670
628 1 10.7010 1.7835 5.3505
629 1 12.4845 0.0000 5.3505
630 1 12.4845 1.7835 3.5670
631 1 11.5928 0.8918 4.4588
632 1 13.3763 2.6752 4.4588
633 1 15.1598 2.6752 2.6752
634 1 16.9432 0.8918 2.6752
635 1 14.2680 0.0000 3.5670
636 1 14.2680 1.7835 5.3505
637 1 16.0515 0.0000 5.3505
638 1 16.0515 1.7835 3.5670
639 1 15.1598 0.8918 4.4588
640 1 16.9432 2.6752 4.4588
641 1 18.7268 2.6752 2.6752
642 1 20.5102 0.8918 2.6752
643 1 17.8350 0.0000 3.5670
644 1 17.8350 1.7835 5.3505
645 1 19.6185 0.0000 5.3505
646 1 19.6185 1.7835 3.5670
647 1 18.7268 0.8918 4.4588
648 1 20.5102 2.6752 4.4588
649 1 22.2938 2.6752 2.6752
650 1 24.0772 0.8918 2.6752
651 1 21.4020 0.0000 3.5670
652 1 21.4020 1.7835 5.3505
653 1 23.1855 0.0000 5.3505
654 1 23.1855 1.7835 3.5670
655 1 22.2938 0.8918 4.4588
656 1 24.0772 2.6752 4.4588
657 1 25.8608 2.6752 2.6752
658 1 27.6442 0.8918 2.6752
659 1 24.9690 0.0000 3.5670
660 1 24.9690 1.7835 5.3505
661 1 26.7525 0.0000 5.3505
662 1 26.7525 1.7835 3.5670
663 1 25.8608 0.8918 4.4588
664 1 27.6442 2.6752 4.4588
665 1 29.4278 2.6752 2.6752
666 1 31.2112 0.8918 2.6752
667 1 28.5360 0.0000 3.5670
668 1 28.5360 1.7835 5.3505
669 1 30.3195 0.0000 5.3505
670 1 30.3195 1.7835 3.5670
671 1 29.4278 0.8918 4.4588
672 1 31.2112 2.6752 4.4588
673 1 32.9948 2.6752 2.6752
674 1 34.7782 0.8918 2.6752
675 1 32.1030 0.0000 3.5670
676 1 32.1030 1.7835 5.3505
677 1 33.8865 0.0000 5.3505
678 1 33.8865 1.7835 3.5670
679 1 32.9948 0.8918 4.4588
680 1 34.7782 2.6752 4.4588
681 1 0.8918 6.2422 2.6752
682 1 2.6752 4.4588 2.6752
683 1 0.0000 3.5670 3.5670
684 1 0.0000 5.3505 5.3505
685 1 1.7835 3.5670 5.3505
686 1 1.7835 5.3505 3.5670
687 1 0.8918 4.4588 4.4588
688 1 2.6752 6.2422 4.4588
689 1 4.4588 6.2422 2.6752
690 1 6.2422 4.4588 2.6752
691 1 3.5670 3.5670 3.5670
692 1 3.5670 5.3505 5.3505
693 1 5.3505 3.5670 5.3505
694 1 5.3505 5.3505 3.5670
695 1 4.4588 4.4588 4.4588
696 1 6.2422 6.2422 4.4588
697 1 8.0258 6.2422 2.6752
698 1 9.8092 4.4588 2.6752
699 1 7.1340 3.5670 3.5670
700 1 7.1340 5.3505 5.3505
701 1 8.9175 3.5670 5.3505
702 1 8.9175 5.3505 3.5670
703 1 8.0258 4.4588 4.4588
704 1 9.8092 6.2422 4.4588
705 1 11.5928 6.2422 2.6752
706 1 13.3763 4.4588 2.6752
707 1 10.7010 3.5670 3.5670
708 1 10.7010 5.3505 5.3505
709 1 12.4845 3.5670 5.3505
710 1 12.4845 5.3505 3.5670
711 1 11.5928 4.4588 4.4588
712 1 13.3763 6.2422 4.4588
713 1 15.1598 6.2422 2.6752
714 1 16.9432 4.4588 2.6752
715 1 14.2680 3.5670 3.5670
716 1 14.2680 5.3505 5.3505
717 1 16.0515 3.5670 5.3505
718 1 16.0515 5.3505 3.5670
719 1 15.1598 4.4588 4.4588
720 1 16.9432 6.2422 4.4588
721 1 18.7268 6.2422 2.6752
722 1 20.5102 4.4588 2.6752
723 1 17.8350 3.5670 3.5670
724 1 17.8350 5.3505 5.3505
725 1 19.6185 3.5670 5.3505
726 1 19.6185 5.3505 3.5670
727 1 18.7268 4.4588 4.4588
728 1 20.5102 6.2422 4.4588
729 1 22.2938 6.2422 2.6752
730 1 24.0772 4.4588 2.6752
731 1 21.4020 3.5670 3.5670
732 1 21.4020 5.3505 5.3505
733 1 23.1855 3.5670 5.3505
734 1 23.1855 5.3505 3.5670
735 1 22.2938 4.4588 4.4588
736 1 24.0772 6.2422 4.4588
737 1 25.8608 6.2422 2.6752
738 1 27.6442 4.4588 2.6752
739 1 24.9690 3.5670 3.5670
740 1 24.9690 5.3505 5.3505
741 1 26.7525 3.5670 5.3505
742 1 26.7525 5.3505 3.5670
743 1 25.8608 4.4588 4.4588
744 1 27.6442 6.2422 4.4588
745 1 29.4278 6.2422 2.6752
746 1 31.2112 4.4588 2.6752
747 1 28.5360 3.5670 3.5670
748 1 28.5360 5.3505 5.3505
749 1 30.3195 3.5670 5.3505
750 1 30.3195 5.3505 3.5670
751 1 29.4278 4.4588 4.4588
752 1 31.2112 6.2422 4.4588
753 1 32.9948 6.2422 2.6752
754 1 34.7782 4.4588 2.6752
755 1 32.1030 3.5670 3.5670
756 1 32.1030 5.3505 5.3505
757 1 33.8865 3.5670 5.3505
758 1 33.8865 5.3505 3.5670
759 1 32.9948 4.4588 4.4588
760 1 34.7782 6.2422 4.4588
761 1 0.8918 9.8092 2.6752
762 1 2.6752 8.0258 2.6752
763 1 0.0000 7.1340 3.5670
764 1 0.0000 8.9175 5.3505
765 1 1.7835 7.1340 5.3505
766 1 1.7835 8.9175 3.5670
767 1 0.8918 8.0258 4.4588
768 1 2.6752 9.8092 4.4588
769 1 4.4588 9.8092 2.6752
770 1 6.2422 8.0258 2.6752
771 1 3.5670 7.1340 3.5670
772 1 3.5670 8.9175 5.3505
773 1 5.3505 7.1340 5.3505
774 1 5.3505 8.9175 3.5670
775 1 4.4588 8.0258 4.4588
776 1 6.2422 9.8092 4.4588
777 1 8.0258 9.8092 2.6752
778 1 9.8092 8.0258 2.6752
779 1 7.1340 7.1340 3.5670
780 1 7.1340 8.9175 5.3505
781 1 8.9175 7.1340 5.3505
782 1 8.9175 8.9175 3.5670
783 1 8.0258 8.0258 4.4588
784 1 9.8092 9.8092 4.4588
785 1 11.5928 9.8092 2.6752
786 1 13.3763 8.0258 2.6752
787 1 10.7010 7.1340 3.5670
788 1 10.7010 8.9175 5.3505
789 1 12.4845 7.1340 5.3505
790 1 12.4845 8.9175 3.5670
791 1 11.5928 8.0258 4.4588
792 1 13.3763 9.8092 4.4588
793 1 15.1598 9.8092 2.6752
794 1 16.9432 8.0258 2.6752
795 1 14.2680 7.1340 3.5670
796 1 14.2680 8.9175 5.3505
797 1 16.0515 7.1340 5.3505
798 1 16.0515 8.9175 3.5670
799 1 15.1598 8.0258 4.4588
800 1 16.9432 9.8092 4.4588
801 1 18.7268 9.8092 2.6752
802 1 20.5102 8.0258 2.6752
803 1 17.8350 7.1340 3.5670
804 1 17.8350 8.9175 5.3505
805 1 19.6185 7.1340 5.3505
806 1 19.6185 8.9175 3.5670
807 1 18.7268 8.0258 4.4588
808 1 20.5102 9.8092 4.4588
809 1 22.2938 9.8092 2.6752
810 1 24.0772 8.0258 2.6752
811 1 21.4020 7.1340 3.5670
812 1 21.4020 8.9175 5.3505
813 1 23.1855 7.1340 5.3505
814 1 23.1855 8.9175 3.5670
815 1 22.2938 8.0258 4.4588
816 1 24.0772 9.8092 4.4588
817 1 25.8608 9.8092 2.6752
818 1 27.6442 8.0258 2.6752
819 1 24.9690 7.1340 3.5670
820 1 24.9690 8.9175 5.3505
821 1 26.7525 7.1340 5.3505
822 1 26.7525 8.9175 3.5670
823 1 25.8608 8.0258 4.4588
824 1 27.6442 9.8092 4.4588
825 1 29.4278 9.8092 2.6752
826 1 31.2112 8.0258 2.6752
827 1 28.5360 7.1340 3.5670
828 1 28.5360 8.9175 5.3505
829 1 30.3195 7.1340 5.3505
830 1 30.3195 8.9175 3.5670
831 1 29.4278 8.0258 4.4588
832 1 31.2112 9.8092 4.4588
833 1 32.9948 9.8092 2.6752
834 1 34.7782 8.0258 2.6752
835 1 32.1030 7.1340 3.5670
836 1 32.1030 8.9175 5.3505
837 1 33.8865 7.1340 5.3505
838 1 33.8865 8.9175 3.5670
839 1 32.9948 8.0258 4.4588
840 1 34.7782 9.8092 4.4588
841 1 0.8918 13.3763 2.6752
842 1 2.6752 11.5928 2.6752
843 1 0.0000 10.7010 3.5670
844 1 0.0000 12.4845 5.3505
845 1 1.7835 10.7010 5.3505
846 1 1.7835 12.4845 3.5670
847 1 0.8918 11.5928 4.4588
848 1 2.6752 13.3763 4.4588
849 1 4.4588 13.3763 2.6752
850 1 6.2422 11.5928 2.6752
851 1 3.5670 10.7010 3.5670
852 1 3.5670 12.4845 5.3505
853 1 5.3505 10.7010 5.3505
854 1 5.3505 12.4845 3.5670
855 1 4.4588 11.5928 4.4588
856 1 6.2422 13.3763 4.4588
857 1 8.0258 13.3763 2.6752
858 1 9.8092 11.5928 2.6752
859 1 7.1340 10.7010 3.5670
860 1 7.1340 12.4845 5.3505
861 1 8.9175 10.7010 5.3505
862 1 8.9175 12.4845 3.5670
863 1 8.0258 11.5928 4.4588
864 1 9.8092 13.3763 4.4588
865 1 11.5928 13.3763 2.6752
866 1 13.3763 11.5928 2.6752
867 1 10.7010 10.7010 3.5670
868 1 10.7010 12.4845 5.3505
869 1 12.4845 10.7010 5.3505
870 1 12.4845 12.4845 3.5670
871 1 11.5928 11.5928 4.4588
872 1 13.3763 13.3763 4.4588
873 1 15.1598 13.3763 2.6752
874 1 16.9432 11.5928 2.6752
875 1 14.2680 10.7010 3.5670
876 1 14.2680 12.4845 5.3505
877 1 16.0515 10.7010 5.3505
878 1 16.0515 12.4845 3.5670
879 1 15.1598 11.5928 4.4588
880 1 16.9432 13.3763 4.4588
881 1 18.7268 13.3763 2.6752
882 1 20.5102 11.5928 2.6752
883 1 17.8350 10.7010 3.5670
884 1 17.8350 12.4845 5.3505
885 1 19.6185 10.7010 5.3505
886 1 19.6185 12.4845 3.5670
887 1 18.7268 11.5928 4.4588
888 1 20.5102 13.3763 4.4588
889 1 22.2938 13.3763 2.6752
890 1 24.0772 11.5928 2.6752
891 1 21.4020 10.7010 3.5670
892 1 21.4020 12.4845 5.3505
893 1 23.1855 10.7010 5.3505
894 1 23.1855 12.4845 3.5670
895 1 22.2938 11.5928 4.4588
896 1 24.0772 13.3763 4.4588
897 1 25.8608 13.3763 2.6752
898 1 27.6442 11.5928 2.6752
899 1 24.9690 10.7010 3.5670
900 1 24.9690 12.4845 5.3505
901 1 26.7525 10.7010 5.3505
902 1 26.7525 12.4845 3.5670
903 1 25.8608 11.5928 4.4588
904 1 27.6442 13.3763 4.4588
905 1 29.4278 13.3763 2.6752
906 1 31.2112 11.5928 2.6752
907 1 28.5360 10.7010 3.5670
908 1 28.5360 12.4845 5.3505
909 1 30.3195 10.7010 5.3505
910 1 30.3195 12.4845 3.5670
911 1 29.4278 11.5928 4.4588
912 1 31.2112 13.3763 4.4588
913 1 32.9948 13.3763 2.6752
914 1 34.7782 11.5928 2.6752
915 1 32.1030 10.7010 3.5670
916 1 32.1030 12.4845 5.3505
917 1 33.8865 10.7010 5.3505
918 1 33.8865 12.4845 3.5670
919 1 32.9948 11.5928 4.4588
920 1 34.7782 13.3763 4.4588
921 1 0.8918 16.9432 2.6752
922 1 2.6752 15.1598 2.6752
923 1 0.0000 14.2680 3.5670
924 1 0.0000 16.0515 5.3505
925 1 1.7835 14.2680 5.3505
926 1 1.7835 16.0515 3.5670
927 1 0.8918 15.1598 4.4588
928 1 2.6752 16.9432 4.4588
929 1 4.4588 16.9432 2.6752
930 1 6.2422 15.1598 2.6752
931 1 3.5670 14.2680 3.5670
932 1 3.5670 16.0515 5.3505
933 1 5.3505 14.2680 5.3505
934 1 5.3505 16.0515 3.5670
935 1 4.4588 15.1598 4.4588
936 1 6.2422 16.9432 4.4588
937 1 8.0258 16.9432 2.6752
938 1 9.8092 15.1598 2.6752
939 1 7.1340 14.2680 3.5670
940 1 7.1340 16.0515 5.3505
941 1 8.9175 14.2680 5.3505
942 1 8.9175 16.0515 3.5670
943 1 8.0258 15.1598 4.4588
944 1 9.8092 16.9432 4.4588
945 1 11.5928 16.9432 2.6752
946 1 13.3763 15.1598 2.6752
947 1 10.7010 14.2680 3.5670
948 1 10.7010 16.0515 5.3505
949 1 12.4845 14.2680 5.3505
950 1 12.4845 16.0515 3.5670
951 1 11.5928 15.1598 4.4588
952 1 13.3763 16.9432 4.4588
953 1 15.1598 16.9432 2.6752
954 1 16.9432 15.1598 2.6752
955 1 14.2680 14.2680 3.5670
956 1 14.2680 16.0515 5.3505
957 1 16.0515 14.2680 5.3505
958 1 16.0515 16.0515 3.5670
959 1 15.1598 15.1598 4.4588
960 1 16.9432 16.9432 4.4588
961 1 18.7268 16.9432 2.6752
962 1 20.5102 15.1598 2.6752
963 1 17.8350 14.2680 3.5670
964 1 17.8350 16.0515 5.3505
965 1 19.6185 14.2680 5.3505
966 1 19.6185 16.0515 3.5670
967 1 18.7268 15.1598 4.4588
968 1 20.5102 16.9432 4.4588
969 1 22.2938 16.9432 2.6752
970 1 24.0772 15.1598 2.6752
971 1 21.4020 14.2680 3.5670
972 1 21.4020 16.0515 5.3505
973 1 23.1855 14.2680 5.3505
974 1 23.1855 16.0515 3.5670
975 1 22.2938 15.1598 4.4588
976 1 24.0772 16.9432 4.4588
977 1 25.8608 16.9432 2.6752
978 1 27.6442 15.1598 2.6752
979 1 24.9690 14.2680 3.5670
980 1 24.9690 16.0515 5.3505
981 1 26.7525 14.2680 5.3505
982 1 26.7525 16.0515 3.5670
983 1 25.8608 15.1598 4.4588
984 1 27.6442 16.9432 4.4588
985 1 29.4278 16.9432 2.6752
986 1 31.2112 15.1598 2.6752
987 1 28.5360 14.2680 3.5670
988 1 28.5360 16.0515 5.3505
989 1 30.3195 14.2680 5.3505
990 1 30.3195 16.0515 3.5670
991 1 29.4278 15.1598 4.4588
992 1 31.2112 16.9432 4.4588
993 1 32.9948 16.9432 2.6752
994 1 34.7782 15.1598 2.6752
995 1 32.1030 14.2680 3.5670
996 1 32.1030 16.0515 5.3505
997 1 33.8865 14.2680 5.3505
998 1 33.8865 16.0515 3.5670
999 1 32.9948 15.1598 4.4588
1000 1 34.7782 16.9432 4.4588
1001 1 0.8918 20.5102 2.6752
1002 1 2.6752 18.7268 2.6752
1003 1 0.0000 17.8350 3.5670
1004 1 0.0000 19.6185 5.3505
1005 1 1.7835 17.8350 5.3505
1006 1 1.7835 19.6185 3.5670
1007 1 0.8918 18.7268 4.4588
1008 1 2.6752 20.5102 4.4588
1009 1 4.4588 20.5102 2.6752
1010 1 6.2422 18.7268 2.6752
1011 1 3.5670 17.8350 3.5670
1012 1 3.5670 19.6185 5.3505
1013 1 5.3505 17.8350 5.3505
1014 1 5.3505 19.6185 3.5670
1015 1 4.4588 18.7268 4.4588
1016 1 6.2422 20.5102 4.4588
1017 1 8.0258 20.5102 2.6752
1018 1 9.8092 18.7268 2.6752
1019 1 7.1340 17.8350 3.5670
1020 1 7.1340 19.6185 5.3505
1021 1 8.9175 17.8350 5.3505
1022 1 8.9175 19.6185 3.5670
1023 1 8.0258 18.7268 4.4588
1024 1 9.8092 20.5102 4.4588
1025 1 11.5928 20.5102 2.6752
1026 1 13.3763 18.7268 2.6752
1027 1 10.7010 17.8350 3.5670
1028 1 10.7010 19.6185 5.3505
1029 1 12.4845 17.8350 5.3505
1030 1 12.4845 19.6185 3.5670
1031 1 11.5928 18.7268 4.4588
1032 1 13.3763 20.5102 4.4588
1033 1 15.1598 20.5102 2.6752
1034 1 16.9432 18.7268 2.6752
1035 1 14.2680 17.8350 3.5670
1036 1 14.2680 19.6185 5.3505
1037 1 16.0515 17.8350 5.3505
1038 1 16.0515 19.6185 3.5670
1039 1 15.1598 18.7268 4.4588
1040 1 16.9432 20.5102 4.4588
1041 1 18.7268 20.5102 2.6752
1042 1 20.5102 18.7268 2.6752
1043 1 17.8350 17.8350 3.5670
1044 1 17.8350 19.6185 5.3505
1045 1 19.6185 17.8350 5.3505
1046 1 19.6185 19.6185 3.5670
1047 1 18.7268 18.7268 4.4588
1048 1 20.5102 20.5102 4.4588
1049 1 22.2938 20.5102 2.6752
1050 1 24.0772 18.7268 2.6752
1051 1 21.4020 17.8350 3.5670
1052 1 21.4020 19.6185 5.3505
1053 1 23.1855 17.8350 5.3505
1054 1 23.1855 19.6185 3.5670
1055 1 22.2938 18.7268 4.4588