LAMMPS data file from restart file: timestep = 1, procs = 1

10800 atoms

3 atom types

0.0000 31.5233 xlo xhi
0.0000 35.1260 ylo yhi
-50 71.34 zlo zhi

Masses

1 12.01
2 2
3 3

Atoms

1 1 0.0000 0.0000 0.0000
2 1 0.0000 1.7835 1.7835
3 1 1.7835 0.0000 1.7835
4 1 1.7835 1.7835 0.0000
5 1 0.8918 0.8918 0.8918
6 1 2.6752 2.6752 0.8918
7 1 3.5670 0.0000 0.0000
8 1 3.5670 1.7835 1.7835
9 1 5.3505 0.0000 1.7835
10 1 5.3505 1.7835 0.0000
11 1 4.4588 0.8918 0.8918
12 1 6.2422 2.6752 0.8918
13 1 7.1340 0.0000 0.0000
14 1 7.1340 1.7835 1.7835
15 1 8.9175 0.0000 1.7835
16 1 8.9175 1.7835 0.0000
17 1 8.0258 0.8918 0.8918
18 1 9.8092 2.6752 0.8918
19 1 10.7010 0.0000 0.0000
20 1 10.7010 1.7835 1.7835
21 1 12.4845 0.0000 1.7835
22 1 12.4845 1.7835 0.0000
23 1 11.5928 0.8918 0.8918
24 1 13.3763 2.6752 0.8918
25 1 14.2680 0.0000 0.0000
26 1 14.2680 1.7835 1.7835
27 1 16.0515 0.0000 1.7835
28 1 16.0515 1.7835 0.0000
29 1 15.1598 0.8918 0.8918
30 1 16.9432 2.6752 0.8918
31 1 17.8350 0.0000 0.0000
32 1 17.8350 1.7835 1.7835
33 1 19.6185 0.0000 1.7835
34 1 19.6185 1.7835 0.0000
35 1 18.7268 0.8918 0.8918
36 1 20.5102 2.6752 0.8918
37 1 21.4020 0.0000 0.0000
38 1 21.4020 1.7835 1.7835
39 1 23.1855 0.0000 1.7835
40 1 23.1855 1.7835 0.0000
41 1 22.2938 0.8918 0.8918
42 1 24.0772 2.6752 0.8918
43 1 24.9690 0.0000 0.0000
44 1 24.9690 1.7835 1.7835
45 1 26.7525 0.0000 1.7835
46 1 26.7525 1.7835 0.0000
47 1 25.8608 0.8918 0.8918
48 1 27.6442 2.6752 0.8918
49 1 28.5360 0.0000 0.0000
50 1 28.5360 1.7835 1.7835
51 1 30.3195 0.0000 1.7835
52 1 30.3195 1.7835 0.0000
53 1 29.4278 0.8918 0.8918
54 1 31.2112 2.6752 0.8918
55 1 0.0000 3.5670 0.0000
56 1 0.0000 5.3505 1.7835
57 1 1.7835 3.5670 1.7835
58 1 1.7835 5.3505 0.0000
59 1 0.8918 4.4588 0.8918
60 1 2.6752 6.2422 0.8918
61 1 3.5670 3.5670 0.0000
62 1 3.5670 5.3505 1.7835
63 1 5.3505 3.5670 1.7835
64 1 5.3505 5.3505 0.0000
65 1 4.4588 4.4588 0.8918
66 1 6.2422 6.2422 0.8918
67 1 7.1340 3.5670 0.0000
68 1 7.1340 5.3505 1.7835
69 1 8.9175 3.5670 1.7835
70 1 8.9175 5.3505 0.0000
71 1 8.0258 4.4588 0.8918
72 1 9.8092 6.2422 0.8918
73 1 10.7010 3.5670 0.0000
74 1 10.7010 5.3505 1.7835
75 1 12.4845 3.5670 1.7835
76 1 12.4845 5.3505 0.0000
77 1 11.5928 4.4588 0.8918
78 1 13.3763 6.2422 0.8918
79 1 14.2680 3.5670 0.0000
80 1 14.2680 5.3505 1.7835
81 1 16.0515 3.5670 1.7835
82 1 16.0515 5.3505 0.0000
83 1 15.1598 4.4588 0.8918
84 1 16.9432 6.2422 0.8918
85 1 17.8350 3.5670 0.0000
86 1 17.8350 5.3505 1.7835
87 1 19.6185 3.5670 1.7835
88 1 19.6185 5.3505 0.0000
89 1 18.7268 4.4588 0.8918
90 1 20.5102 6.2422 0.8918
91 1 21.4020 3.5670 0.0000
92 1 21.4020 5.3505 1.7835
93 1 23.1855 3.5670 1.7835
94 1 23.1855 5.3505 0.0000
95 1 22.2938 4.4588 0.8918
96 1 24.0772 6.2422 0.8918
97 1 24.9690 3.5670 0.0000
98 1 24.9690 5.3505 1.7835
99 1 26.7525 3.5670 1.7835
100 1 26.7525 5.3505 0.0000
101 1 25.8608 4.4588 0.8918
102 1 27.6442 6.2422 0.8918
103 1 28.5360 3.5670 0.0000
104 1 28.5360 5.3505 1.7835
105 1 30.3195 3.5670 1.7835
106 1 30.3195 5.3505 0.0000
107 1 29.4278 4.4588 0.8918
108 1 31.2112 6.2422 0.8918
109 1 0.0000 7.1340 0.0000
110 1 0.0000 8.9175 1.7835
111 1 1.7835 7.1340 1.7835
112 1 1.7835 8.9175 0.0000
113 1 0.8918 8.0258 0.8918
114 1 2.6752 9.8092 0.8918
115 1 3.5670 7.1340 0.0000
116 1 3.5670 8.9175 1.7835
117 1 5.3505 7.1340 1.7835
118 1 5.3505 8.9175 0.0000
119 1 4.4588 8.0258 0.8918
120 1 6.2422 9.8092 0.8918
121 1 7.1340 7.1340 0.0000
122 1 7.1340 8.9175 1.7835
123 1 8.9175 7.1340 1.7835
124 1 8.9175 8.9175 0.0000
125 1 8.0258 8.0258 0.8918
126 1 9.8092 9.8092 0.8918
127 1 10.7010 7.1340 0.0000
128 1 10.7010 8.9175 1.7835
129 1 12.4845 7.1340 1.7835
130 1 12.4845 8.9175 0.0000
131 1 11.5928 8.0258 0.8918
132 1 13.3763 9.8092 0.8918
133 1 14.2680 7.1340 0.0000
134 1 14.2680 8.9175 1.7835
135 1 16.0515 7.1340 1.7835
136 1 16.0515 8.9175 0.0000
137 1 15.1598 8.0258 0.8918
138 1 16.9432 9.8092 0.8918
139 1 17.8350 7.1340 0.0000
140 1 17.8350 8.9175 1.7835
141 1 19.6185 7.1340 1.7835
142 1 19.6185 8.9175 0.0000
143 1 18.7268 8.0258 0.8918
144 1 20.5102 9.8092 0.8918
145 1 21.4020 7.1340 0.0000
146 1 21.4020 8.9175 1.7835
147 1 23.1855 7.1340 1.7835
148 1 23.1855 8.9175 0.0000
149 1 22.2938 8.0258 0.8918
150 1 24.0772 9.8092 0.8918
151 1 24.9690 7.1340 0.0000
152 1 24.9690 8.9175 1.7835
153 1 26.7525 7.1340 1.7835
154 1 26.7525 8.9175 0.0000
155 1 25.8608 8.0258 0.8918
156 1 27.6442 9.8092 0.8918
157 1 28.5360 7.1340 0.0000
158 1 28.5360 8.9175 1.7835
159 1 30.3195 7.1340 1.7835
160 1 30.3195 8.9175 0.0000
161 1 29.4278 8.0258 0.8918
162 1 31.2112 9.8092 0.8918
163 1 0.0000 10.7010 0.0000
164 1 0.0000 12.4845 1.7835
165 1 1.7835 10.7010 1.7835
166 1 1.7835 12.4845 0.0000
167 1 0.8918 11.5928 0.8918
168 1 2.6752 13.3763 0.8918
169 1 3.5670 10.7010 0.0000
170 1 3.5670 12.4845 1.7835
171 1 5.3505 10.7010 1.7835
172 1 5.3505 12.4845 0.0000
173 1 4.4588 11.5928 0.8918
174 1 6.2422 13.3763 0.8918
175 1 7.1340 10.7010 0.0000
176 1 7.1340 12.4845 1.7835
177 1 8.9175 10.7010 1.7835
178 1 8.9175 12.4845 0.0000
179 1 8.0258 11.5928 0.8918
180 1 9.8092 13.3763 0.8918
181 1 10.7010 10.7010 0.0000
182 1 10.7010 12.4845 1.7835
183 1 12.4845 10.7010 1.7835
184 1 12.4845 12.4845 0.0000
185 1 11.5928 11.5928 0.8918
186 1 13.3763 13.3763 0.8918
187 1 14.2680 10.7010 0.0000
188 1 14.2680 12.4845 1.7835
189 1 16.0515 10.7010 1.7835
190 1 16.0515 12.4845 0.0000
191 1 15.1598 11.5928 0.8918
192 1 16.9432 13.3763 0.8918
193 1 17.8350 10.7010 0.0000
194 1 17.8350 12.4845 1.7835
195 1 19.6185 10.7010 1.7835
196 1 19.6185 12.4845 0.0000
197 1 18.7268 11.5928 0.8918
198 1 20.5102 13.3763 0.8918
199 1 21.4020 10.7010 0.0000
200 1 21.4020 12.4845 1.7835
201 1 23.1855 10.7010 1.7835
202 1 23.1855 12.4845 0.0000
203 1 22.2938 11.5928 0.8918
204 1 24.0772 13.3763 0.8918
205 1 24.9690 10.7010 0.0000
206 1 24.9690 12.4845 1.7835
207 1 26.7525 10.7010 1.7835
208 1 26.7525 12.4845 0.0000
209 1 25.8608 11.5928 0.8918
210 1 27.6442 13.3763 0.8918
211 1 28.5360 10.7010 0.0000
212 1 28.5360 12.4845 1.7835
213 1 30.3195 10.7010 1.7835
214 1 30.3195 12.4845 0.0000
215 1 29.4278 11.5928 0.8918
216 1 31.2112 13.3763 0.8918
217 1 0.0000 14.2680 0.0000
218 1 0.0000 16.0515 1.7835
219 1 1.7835 14.2680 1.7835
220 1 1.7835 16.0515 0.0000
221 1 0.8918 15.1598 0.8918
222 1 2.6752 16.9432 0.8918
223 1 3.5670 14.2680 0.0000
224 1 3.5670 16.0515 1.7835
225 1 5.3505 14.2680 1.7835
226 1 5.3505 16.0515 0.0000
227 1 4.4588 15.1598 0.8918
228 1 6.2422 16.9432 0.8918
229 1 7.1340 14.2680 0.0000
230 1 7.1340 16.0515 1.7835
231 1 8.9175 14.2680 1.7835
232 1 8.9175 16.0515 0.0000
233 1 8.0258 15.1598 0.8918
234 1 9.8092 16.9432 0.8918
235 1 10.7010 14.2680 0.0000
236 1 10.7010 16.0515 1.7835
237 1 12.4845 14.2680 1.7835
238 1 12.4845 16.0515 0.0000
239 1 11.5928 15.1598 0.8918
240 1 13.3763 16.9432 0.8918
241 1 14.2680 14.2680 0.0000
242 1 14.2680 16.0515 1.7835
243 1 16.0515 14.2680 1.7835
244 1 16.0515 16.0515 0.0000
245 1 15.1598 15.1598 0.8918
246 1 16.9432 16.9432 0.8918
247 1 17.8350 14.2680 0.0000
248 1 17.8350 16.0515 1.7835
249 1 19.6185 14.2680 1.7835
250 1 19.6185 16.0515 0.0000
251 1 18.7268 15.1598 0.8918
252 1 20.5102 16.9432 0.8918
253 1 21.4020 14.2680 0.0000
254 1 21.4020 16.0515 1.7835
255 1 23.1855 14.2680 1.7835
256 1 23.1855 16.0515 0.0000
257 1 22.2938 15.1598 0.8918
258 1 24.0772 16.9432 0.8918
259 1 24.9690 14.2680 0.0000
260 1 24.9690 16.0515 1.7835
261 1 26.7525 14.2680 1.7835
262 1 26.7525 16.0515 0.0000
263 1 25.8608 15.1598 0.8918
264 1 27.6442 16.9432 0.8918
265 1 28.5360 14.2680 0.0000
266 1 28.5360 16.0515 1.7835
267 1 30.3195 14.2680 1.7835
268 1 30.3195 16.0515 0.0000
269 1 29.4278 15.1598 0.8918
270 1 31.2112 16.9432 0.8918
271 1 0.0000 17.8350 0.0000
272 1 0.0000 19.6185 1.7835
273 1 1.7835 17.8350 1.7835
274 1 1.7835 19.6185 0.0000
275 1 0.8918 18.7268 0.8918
276 1 2.6752 20.5102 0.8918
277 1 3.5670 17.8350 0.0000
278 1 3.5670 19.6185 1.7835
279 1 5.3505 17.8350 1.7835
280 1 5.3505 19.6185 0.0000
281 1 4.4588 18.7268 0.8918
282 1 6.2422 20.5102 0.8918
283 1 7.1340 17.8350 0.0000
284 1 7.1340 19.6185 1.7835
285 1 8.9175 17.8350 1.7835
286 1 8.9175 19.6185 0.0000
287 1 8.0258 18.7268 0.8918
288 1 9.8092 20.5102 0.8918
289 1 10.7010 17.8350 0.0000
290 1 10.7010 19.6185 1.7835
291 1 12.4845 17.8350 1.7835
292 1 12.4845 19.6185 0.0000
293 1 11.5928 18.7268 0.8918
294 1 13.3763 20.5102 0.8918
295 1 14.2680 17.8350 0.0000
296 1 14.2680 19.6185 1.7835
297 1 16.0515 17.8350 1.7835
298 1 16.0515 19.6185 0.0000
299 1 15.1598 18.7268 0.8918
300 1 16.9432 20.5102 0.8918
301 1 17.8350 17.8350 0.0000
302 1 17.8350 19.6185 1.7835
303 1 19.6185 17.8350 1.7835
304 1 19.6185 19.6185 0.0000
305 1 18.7268 18.7268 0.8918
306 1 20.5102 20.5102 0.8918
307 1 21.4020 17.8350 0.0000
308 1 21.4020 19.6185 1.7835
309 1 23.1855 17.8350 1.7835
310 1 23.1855 19.6185 0.0000
311 1 22.2938 18.7268 0.8918
312 1 24.0772 20.5102 0.8918
313 1 24.9690 17.8350 0.0000
314 1 24.9690 19.6185 1.7835
315 1 26.7525 17.8350 1.7835
316 1 26.7525 19.6185 0.0000
317 1 25.8608 18.7268 0.8918
318 1 27.6442 20.5102 0.8918
319 1 28.5360 17.8350 0.0000
320 1 28.5360 19.6185 1.7835
321 1 30.3195 17.8350 1.7835
322 1 30.3195 19.6185 0.0000
323 1 29.4278 18.7268 0.8918
324 1 31.2112 20.5102 0.8918
325 1 0.0000 21.4020 0.0000
326 1 0.0000 23.1855 1.7835
327 1 1.7835 21.4020 1.7835
328 1 1.7835 23.1855 0.0000
329 1 0.8918 22.2938 0.8918
330 1 2.6752 24.0772 0.8918
331 1 3.5670 21.4020 0.0000
332 1 3.5670 23.1855 1.7835
333 1 5.3505 21.4020 1.7835
334 1 5.3505 23.1855 0.0000
335 1 4.4588 22.2938 0.8918
336 1 6.2422 24.0772 0.8918
337 1 7.1340 21.4020 0.0000
338 1 7.1340 23.1855 1.7835
339 1 8.9175 21.4020 1.7835
340 1 8.9175 23.1855 0.0000
341 1 8.0258 22.2938 0.8918
342 1 9.8092 24.0772 0.8918
343 1 10.7010 21.4020 0.0000
344 1 10.7010 23.1855 1.7835
345 1 12.4845 21.4020 1.7835
346 1 12.4845 23.1855 0.0000
347 1 11.5928 22.2938 0.8918
348 1 13.3763 24.0772 0.8918
349 1 14.2680 21.4020 0.0000
350 1 14.2680 23.1855 1.7835
351 1 16.0515 21.4020 1.7835
352 1 16.0515 23.1855 0.0000
353 1 15.1598 22.2938 0.8918
354 1 16.9432 24.0772 0.8918
355 1 17.8350 21.4020 0.0000
356 1 17.8350 23.1855 1.7835
357 1 19.6185 21.4020 1.7835
358 1 19.6185 23.1855 0.0000
359 1 18.7268 22.2938 0.8918
360 1 20.5102 24.0772 0.8918
361 1 21.4020 21.4020 0.0000
362 1 21.4020 23.1855 1.7835
363 1 23.1855 21.4020 1.7835
364 1 23.1855 23.1855 0.0000
365 1 22.2938 22.2938 0.8918
366 1 24.0772 24.0772 0.8918
367 1 24.9690 21.4020 0.0000
368 1 24.9690 23.1855 1.7835
369 1 26.7525 21.4020 1.7835
370 1 26.7525 23.1855 0.0000
371 1 25.8608 22.2938 0.8918
372 1 27.6442 24.0772 0.8918
373 1 28.5360 21.4020 0.0000
374 1 28.5360 23.1855 1.7835
375 1 30.3195 21.4020 1.7835
376 1 30.3195 23.1855 0.0000
377 1 29.4278 22.2938 0.8918
378 1 31.2112 24.0772 0.8918
379 1 0.0000 24.9690 0.0000
380 1 0.0000 26.7525 1.7835
381 1 1.7835 24.9690 1.7835
382 1 1.7835 26.7525 0.0000
383 1 0.8918 25.8608 0.8918
384 1 2.6752 27.6442 0.8918
385 1 3.5670 24.9690 0.0000
386 1 3.5670 26.7525 1.7835
387 1 5.3505 24.9690 1.7835
388 1 5.3505 26.7525 0.0000
389 1 4.4588 25.8608 0.8918
390 1 6.2422 27.6442 0.8918
391 1 7.1340 24.9690 0.0000
392 1 7.1340 26.7525 1.7835
393 1 8.9175 24.9690 1.7835
394 1 8.9175 26.7525 0.0000
395 1 8.0258 25.8608 0.8918
396 1 9.8092 27.6442 0.8918
397 1 10.7010 24.9690 0.0000
398 1 10.7010 26.7525 1.7835
399 1 12.4845 24.9690 1.7835
400 1 12.4845 26.7525 0.0000
401 1 11.5928 25.8608 0.8918
402 1 13.3763 27.6442 0.8918
403 1 14.2680 24.9690 0.0000
404 1 14.2680 26.7525 1.7835
405 1 16.0515 24.9690 1.7835
406 1 16.0515 26.7525 0.0000
407 1 15.1598 25.8608 0.8918
408 1 16.9432 27.6442 0.8918
409 1 17.8350 24.9690 0.0000
410 1 17.8350 26.7525 1.7835
411 1 19.6185 24.9690 1.7835
412 1 19.6185 26.7525 0.0000
413 1 18.7268 25.8608 0.8918
414 1 20.5102 27.6442 0.8918
415 1 21.4020 24.9690 0.0000
416 1 21.4020 26.7525 1.7835
417 1 23.1855 24.9690 1.7835
418 1 23.1855 26.7525 0.0000
419 1 22.2938 25.8608 0.8918
420 1 24.0772 27.6442 0.8918
421 1 24.9690 24.9690 0.0000
422 1 24.9690 26.7525 1.7835
423 1 26.7525 24.9690 1.7835
424 1 26.7525 26.7525 0.0000
425 1 25.8608 25.8608 0.8918
426 1 27.6442 27.6442 0.8918
427 1 28.5360 24.9690 0.0000
428 1 28.5360 26.7525 1.7835
429 1 30.3195 24.9690 1.7835
430 1 30.3195 26.7525 0.0000
431 1 29.4278 25.8608 0.8918
432 1 31.2112 27.6442 0.8918
433 1 0.0000 28.5360 0.0000
434 1 0.0000 30.3195 1.7835
435 1 1.7835 28.5360 1.7835
436 1 1.7835 30.3195 0.0000
437 1 0.8918 29.4278 0.8918
438 1 2.6752 31.2112 0.8918
439 1 3.5670 28.5360 0.0000
440 1 3.5670 30.3195 1.7835
441 1 5.3505 28.5360 1.7835
442 1 5.3505 30.3195 0.0000
443 1 4.4588 29.4278 0.8918
444 1 6.2422 31.2112 0.8918
445 1 7.1340 28.5360 0.0000
446 1 7.1340 30.3195 1.7835
447 1 8.9175 28.5360 1.7835
448 1 8.9175 30.3195 0.0000
449 1 8.0258 29.4278 0.8918
450 1 9.8092 31.2112 0.8918
451 1 10.7010 28.5360 0.0000
452 1 10.7010 30.3195 1.7835
453 1 12.4845 28.5360 1.7835
454 1 12.4845 30.3195 0.0000
455 1 11.5928 29.4278 0.8918
456 1 13.3763 31.2112 0.8918
457 1 14.2680 28.5360 0.0000
458 1 14.2680 30.3195 1.7835
459 1 16.0515 28.5360 1.7835
460 1 16.0515 30.3195 0.0000
461 1 15.1598 29.4278 0.8918
462 1 16.9432 31.2112 0.8918
463 1 17.8350 28.5360 0.0000
464 1 17.8350 30.3195 1.7835
465 1 19.6185 28.5360 1.7835
466 1 19.6185 30.3195 0.0000
467 1 18.7268 29.4278 0.8918
468 1 20.5102 31.2112 0.8918
469 1 21.4020 28.5360 0.0000
470 1 21.4020 30.3195 1.7835
471 1 23.1855 28.5360 1.7835
472 1 23.1855 30.3195 0.0000
473 1 22.2938 29.4278 0.8918
474 1 24.0772 31.2112 0.8918
475 1 24.9690 28.5360 0.0000
476 1 24.9690 30.3195 1.7835
477 1 26.7525 28.5360 1.7835
478 1 26.7525 30.3195 0.0000
479 1 25.8608 29.4278 0.8918
480 1 27.6442 31.2112 0.8918
481 1 28.5360 28.5360 0.0000
482 1 28.5360 30.3195 1.7835
483 1 30.3195 28.5360 1.7835
484 1 30.3195 30.3195 0.0000
485 1 29.4278 29.4278 0.8918
486 1 31.2112 31.2112 0.8918
487 1 0.0000 32.1030 0.0000
488 1 0.0000 33.8865 1.7835
489 1 1.7835 32.1030 1.7835
490 1 1.7835 33.8865 0.0000
491 1 0.8918 32.9948 0.8918
492 1 2.6752 34.7782 0.8918
493 1 3.5670 32.1030 0.0000
494 1 3.5670 33.8865 1.7835
495 1 5.3505 32.1030 1.7835
496 1 5.3505 33.8865 0.0000
497 1 4.4588 32.9948 0.8918
498 1 6.2422 34.7782 0.8918
499 1 7.1340 32.1030 0.0000
500 1 7.1340 33.8865 1.7835
501 1 8.9175 32.1030 1.7835
502 1 8.9175 33.8865 0.0000
503 1 8.0258 32.9948 0.8918
504 1 9.8092 34.7782 0.8918
505 1 10.7010 32.1030 0.0000
506 1 10.7010 33.8865 1.7835
507 1 12.4845 32.1030 1.7835
508 1 12.4845 33.8865 0.0000
509 1 11.5928 32.9948 0.8918
510 1 13.3763 34.7782 0.8918
511 1 14.2680 32.1030 0.0000
512 1 14.2680 33.8865 1.7835
513 1 16.0515 32.1030 1.7835
514 1 16.0515 33.8865 0.0000
515 1 15.1598 32.9948 0.8918
516 1 16.9432 34.7782 0.8918
517 1 17.8350 32.1030 0.0000
518 1 17.8350 33.8865 1.7835
519 1 19.6185 32.1030 1.7835
520 1 19.6185 33.8865 0.0000
521 1 18.7268 32.9948 0.8918
522 1 20.5102 34.7782 0.8918
523 1 21.4020 32.1030 0.0000
524 1 21.4020 33.8865 1.7835
525 1 23.1855 32.1030 1.7835
526 1 23.1855 33.8865 0.0000
527 1 22.2938 32.9948 0.8918
528 1 24.0772 34.7782 0.8918
529 1 24.9690 32.1030 0.0000
530 1 24.9690 33.8865 1.7835
531 1 26.7525 32.1030 1.7835
532 1 26.7525 33.8865 0.0000
533 1 25.8608 32.9948 0.8918
534 1 27.6442 34.7782 0.8918
535 1 28.5360 32.1030 0.0000
536 1 28.5360 33.8865 1.7835
537 1 30.3195 32.1030 1.7835
538 1 30.3195 33.8865 0.0000
539 1 29.4278 32.9948 0.8918
540 1 31.2112 34.7782 0.8918
541 1 0.8918 2.6752 2.6752
542 1 2.6752 0.8918 2.6752
543 1 0.0000 0.0000 3.5670
544 1 0.0000 1.7835 5.3505
545 1 1.7835 0.0000 5.3505
546 1 1.7835 1.7835 3.5670
547 1 0.8918 0.8918 4.4588
548 1 2.6752 2.6752 4.4588
549 1 4.4588 2.6752 2.6752
550 1 6.2422 0.8918 2.6752
551 1 3.5670 0.0000 3.5670
552 1 3.5670 1.7835 5.3505
553 1 5.3505 0.0000 5.3505
554 1 5.3505 1.7835 3.5670
555 1 4.4588 0.8918 4.4588
556 1 6.2422 2.6752 4.4588
557 1 8.0258 2.6752 2.6752
558 1 9.8092 0.8918 2.6752
559 1 7.1340 0.0000 3.5670
560 1 7.1340 1.7835 5.3505
561 1 8.9175 0.0000 5.3505
562 1 8.9175 1.7835 3.5670
563 1 8.0258 0.8918 4.4588
564 1 9.8092 2.6752 4.4588
565 1 11.5928 2.6752 2.6752
566 1 13.3763 0.8918 2.6752
567 1 10.7010 0.0000 3.5670
568 1 10.7010 1.7835 5.3505
569 1 12.4845 0.0000 5.3505
570 1 12.4845 1.7835 3.5670
571 1 11.5928 0.8918 4.4588
572 1 13.3763 2.6752 4.4588
573 1 15.1598 2.6752 2.6752
574 1 16.9432 0.8918 2.6752
575 1 14.2680 0.0000 3.5670
576 1 14.2680 1.7835 5.3505
577 1 16.0515 0.0000 5.3505
578 1 16.0515 1.7835 3.5670
579 1 15.1598 0.8918 4.4588
580 1 16.9432 2.6752 4.4588
581 1 18.7268 2.6752 2.6752
582 1 20.5102 0.8918 2.6752
583 1 17.8350 0.0000 3.5670
584 1 17.8350 1.7835 5.3505
585 1 19.6185 0.0000 5.3505
586 1 19.6185 1.7835 3.5670
587 1 18.7268 0.8918 4.4588
588 1 20.5102 2.6752 4.4588
589 1 22.2938 2.6752 2.6752
590 1 24.0772 0.8918 2.6752
591 1 21.4020 0.0000 3.5670
592 1 21.4020 1.7835 5.3505
593 1 23.1855 0.0000 5.3505
594 1 23.1855 1.7835 3.5670
595 1 22.2938 0.8918 4.4588
596 1 24.0772 2.6752 4.4588
597 1 25.8608 2.6752 2.6752
598 1 27.6442 0.8918 2.6752
599 1 24.9690 0.0000 3.5670
600 1 24.9690 1.7835 5.3505
601 1 26.7525 0.0000 5.3505
602 1 26.7525 1.7835 3.5670
603 1 25.8608 0.8918 4.4588
604 1 27.6442 2.6752 4.4588
605 1 29.4278 2.6752 2.6752
606 1 31.2112 0.8918 2.6752
607 1 28.5360 0.0000 3.5670
608 1 28.5360 1.7835 5.3505
609 1 30.3195 0.0000 5.3505
610 1 30.3195 1.7835 3.5670
611 1 29.4278 0.8918 4.4588
612 1 31.2112 2.6752 4.4588
613 1 0.8918 6.2422 2.6752
614 1 2.6752 4.4588 2.6752
615 1 0.0000 3.5670 3.5670
616 1 0.0000 5.3505 5.3505
617 1 1.7835 3.5670 5.3505
618 1 1.7835 5.3505 3.5670
619 1 0.8918 4.4588 4.4588
620 1 2.6752 6.2422 4.4588
621 1 4.4588 6.2422 2.6752
622 1 6.2422 4.4588 2.6752
623 1 3.5670 3.5670 3.5670
624 1 3.5670 5.3505 5.3505
625 1 5.3505 3.5670 5.3505
626 1 5.3505 5.3505 3.5670
627 1 4.4588 4.4588 4.4588
628 1 6.2422 6.2422 4.4588
629 1 8.0258 6.2422 2.6752
630 1 9.8092 4.4588 2.6752
631 1 7.1340 3.5670 3.5670
632 1 7.1340 5.3505 5.3505
633 1 8.9175 3.5670 5.3505
634 1 8.9175 5.3505 3.5670
635 1 8.0258 4.4588 4.4588
636 1 9.8092 6.2422 4.4588
637 1 11.5928 6.2422 2.6752
638 1 13.3763 4.4588 2.6752
639 1 10.7010 3.5670 3.5670
640 1 10.7010 5.3505 5.3505
641 1 12.4845 3.5670 5.3505
642 1 12.4845 5.3505 3.5670
643 1 11.5928 4.4588 4.4588
644 1 13.3763 6.2422 4.4588
645 1 15.1598 6.2422 2.6752
646 1 16.9432 4.4588 2.6752
647 1 14.2680 3.5670 3.5670
648 1 14.2680 5.3505 5.3505
649 1 16.0515 3.5670 5.3505
650 1 16.0515 5.3505 3.5670
651 1 15.1598 4.4588 4.4588
652 1 16.9432 6.2422 4.4588
653 1 18.7268 6.2422 2.6752
654 1 20.5102 4.4588 2.6752
655 1 17.8350 3.5670 3.5670
656 1 17.8350 5.3505 5.3505
657 1 19.6185 3.5670 5.3505
658 1 19.6185 5.3505 3.5670
659 1 18.7268 4.4588 4.4588
660 1 20.5102 6.2422 4.4588
661 1 22.2938 6.2422 2.6752
662 1 24.0772 4.4588 2.6752
663 1 21.4020 3.5670 3.5670
664 1 21.4020 5.3505 5.3505
665 1 23.1855 3.5670 5.3505
666 1 23.1855 5.3505 3.5670
667 1 22.2938 4.4588 4.4588
668 1 24.0772 6.2422 4.4588
669 1 25.8608 6.2422 2.6752
670 1 27.6442 4.4588 2.6752
671 1 24.9690 3.5670 3.5670
672 1 24.9690 5.3505 5.3505
673 1 26.7525 3.5670 5.3505
674 1 26.7525 5.3505 3.5670
675 1 25.8608 4.4588 4.4588
676 1 27.6442 6.2422 4.4588
677 1 29.4278 6.2422 2.6752
678 1 31.2112 4.4588 2.6752
679 1 28.5360 3.5670 3.5670
680 1 28.5360 5.3505 5.3505
681 1 30.3195 3.5670 5.3505
682 1 30.3195 5.3505 3.5670
683 1 29.4278 4.4588 4.4588
684 1 31.2112 6.2422 4.4588
685 1 0.8918 9.8092 2.6752
686 1 2.6752 8.0258 2.6752
687 1 0.0000 7.1340 3.5670
688 1 0.0000 8.9175 5.3505
689 1 1.7835 7.1340 5.3505
690 1 1.7835 8.9175 3.5670
691 1 0.8918 8.0258 4.4588
692 1 2.6752 9.8092 4.4588
693 1 4.4588 9.8092 2.6752
694 1 6.2422 8.0258 2.6752
695 1 3.5670 7.1340 3.5670
696 1 3.5670 8.9175 5.3505
697 1 5.3505 7.1340 5.3505
698 1 5.3505 8.9175 3.5670
699 1 4.4588 8.0258 4.4588
700 1 6.2422 9.8092 4.4588
701 1 8.0258 9.8092 2.6752
702 1 9.8092 8.0258 2.6752
703 1 7.1340 7.1340 3.5670
704 1 7.1340 8.9175 5.3505
705 1 8.9175 7.1340 5.3505
706 1 8.9175 8.9175 3.5670
707 1 8.0258 8.0258 4.4588
708 1 9.8092 9.8092 4.4588
709 1 11.5928 9.8092 2.6752
710 1 13.3763 8.0258 2.6752
711 1 10.7010 7.1340 3.5670
712 1 10.7010 8.9175 5.3505
713 1 12.4845 7.1340 5.3505
714 1 12.4845 8.9175 3.5670
715 1 11.5928 8.0258 4.4588
716 1 13.3763 9.8092 4.4588
717 1 15.1598 9.8092 2.6752
718 1 16.9432 8.0258 2.6752
719 1 14.2680 7.1340 3.5670
720 1 14.2680 8.9175 5.3505
721 1 16.0515 7.1340 5.3505
722 1 16.0515 8.9175 3.5670
723 1 15.1598 8.0258 4.4588
724 1 16.9432 9.8092 4.4588
725 1 18.7268 9.8092 2.6752
726 1 20.5102 8.0258 2.6752
727 1 17.8350 7.1340 3.5670
728 1 17.8350 8.9175 5.3505
729 1 19.6185 7.1340 5.3505
730 1 19.6185 8.9175 3.5670
731 1 18.7268 8.0258 4.4588
732 1 20.5102 9.8092 4.4588
733 1 22.2938 9.8092 2.6752
734 1 24.0772 8.0258 2.6752
735 1 21.4020 7.1340 3.5670
736 1 21.4020 8.9175 5.3505
737 1 23.1855 7.1340 5.3505
738 1 23.1855 8.9175 3.5670
739 1 22.2938 8.0258 4.4588
740 1 24.0772 9.8092 4.4588
741 1 25.8608 9.8092 2.6752
742 1 27.6442 8.0258 2.6752
743 1 24.9690 7.1340 3.5670
744 1 24.9690 8.9175 5.3505
745 1 26.7525 7.1340 5.3505
746 1 26.7525 8.9175 3.5670
747 1 25.8608 8.0258 4.4588
748 1 27.6442 9.8092 4.4588
749 1 29.4278 9.8092 2.6752
750 1 31.2112 8.0258 2.6752
751 1 28.5360 7.1340 3.5670
752 1 28.5360 8.9175 5.3505
753 1 30.3195 7.1340 5.3505
754 1 30.3195 8.9175 3.5670
755 1 29.4278 8.0258 4.4588
756 1 31.2112 9.8092 4.4588
757 1 0.8918 13.3763 2.6752
758 1 2.6752 11.5928 2.6752
759 1 0.0000 10.7010 3.5670
760 1 0.0000 12.4845 5.3505
761 1 1.7835 10.7010 5.3505
762 1 1.7835 12.4845 3.5670
763 1 0.8918 11.5928 4.4588
764 1 2.6752 13.3763 4.4588
765 1 4.4588 13.3763 2.6752
766 1 6.2422 11.5928 2.6752
767 1 3.5670 10.7010 3.5670
768 1 3.5670 12.4845 5.3505
769 1 5.3505 10.7010 5.3505
770 1 5.3505 12.4845 3.5670
771 1 4.4588 11.5928 4.4588
772 1 6.2422 13.3763 4.4588
773 1 8.0258 13.3763 2.6752
774 1 9.8092 11.5928 2.6752
775 1 7.1340 10.7010 3.5670
776 1 7.1340 12.4845 5.3505
777 1 8.9175 10.7010 5.3505
778 1 8.9175 12.4845 3.5670
779 1 8.0258 11.5928 4.4588
780 1 9.8092 13.3763 4.4588
781 1 11.5928 13.3763 2.6752
782 1 13.3763 11.5928 2.6752
783 1 10.7010 10.7010 3.5670
784 1 10.7010 12.4845 5.3505
785 1 12.4845 10.7010 5.3505
786 1 12.4845 12.4845 3.5670
787 1 11.5928 11.5928 4.4588
788 1 13.3763 13.3763 4.4588
789 1 15.1598 13.3763 2.6752
790 1 16.9432 11.5928 2.6752
791 1 14.2680 10.7010 3.5670
792 1 14.2680 12.4845 5.3505
793 1 16.0515 10.7010 5.3505
794 1 16.0515 12.4845 3.5670
795 1 15.1598 11.5928 4.4588
796 1 16.9432 13.3763 4.4588
797 1 18.7268 13.3763 2.6752
798 1 20.5102 11.5928 2.6752
799 1 17.8350 10.7010 3.5670
800 1 17.8350 12.4845 5.3505
801 1 19.6185 10.7010 5.3505
802 1 19.6185 12.4845 3.5670
803 1 18.7268 11.5928 4.4588
804 1 20.5102 13.3763 4.4588
805 1 22.2938 13.3763 2.6752
806 1 24.0772 11.5928 2.6752
807 1 21.4020 10.7010 3.5670
808 1 21.4020 12.4845 5.3505
809 1 23.1855 10.7010 5.3505
810 1 23.1855 12.4845 3.5670
811 1 22.2938 11.5928 4.4588
812 1 24.0772 13.3763 4.4588
813 1 25.8608 13.3763 2.6752
814 1 27.6442 11.5928 2.6752
815 1 24.9690 10.7010 3.5670
816 1 24.9690 12.4845 5.3505
817 1 26.7525 10.7010 5.3505
818 1 26.7525 12.4845 3.5670
819 1 25.8608 11.5928 4.4588
820 1 27.6442 13.3763 4.4588
821 1 29.4278 13.3763 2.6752
822 1 31.2112 11.5928 2.6752
823 1 28.5360 10.7010 3.5670
824 1 28.5360 12.4845 5.3505
825 1 30.3195 10.7010 5.3505
826 1 30.3195 12.4845 3.5670
827 1 29.4278 11.5928 4.4588
828 1 31.2112 13.3763 4.4588
829 1 0.8918 16.9432 2.6752
830 1 2.6752 15.1598 2.6752
831 1 0.0000 14.2680 3.5670
832 1 0.0000 16.0515 5.3505
833 1 1.7835 14.2680 5.3505
834 1 1.7835 16.0515 3.5670
835 1 0.8918 15.1598 4.4588
836 1 2.6752 16.9432 4.4588
837 1 4.4588 16.9432 2.6752
838 1 6.2422 15.1598 2.6752
839 1 3.5670 14.2680 3.5670
840 1 3.5670 16.0515 5.3505
841 1 5.3505 14.2680 5.3505
842 1 5.3505 16.0515 3.5670
843 1 4.4588 15.1598 4.4588
844 1 6.2422 16.9432 4.4588
845 1 8.0258 16.9432 2.6752
846 1 9.8092 15.1598 2.6752
847 1 7.1340 14.2680 3.5670
848 1 7.1340 16.0515 5.3505
849 1 8.9175 14.2680 5.3505
850 1 8.9175 16.0515 3.5670
851 1 8.0258 15.1598 4.4588
852 1 9.8092 16.9432 4.4588
853 1 11.5928 16.9432 2.6752
854 1 13.3763 15.1598 2.6752
855 1 10.7010 14.2680 3.5670
856 1 10.7010 16.0515 5.3505
857 1 12.4845 14.2680 5.3505
858 1 12.4845 16.0515 3.5670
859 1 11.5928 15.1598 4.4588
860 1 13.3763 16.9432 4.4588
861 1 15.1598 16.9432 2.6752
862 1 16.9432 15.1598 2.6752
863 1 14.2680 14.2680 3.5670
864 1 14.2680 16.0515 5.3505
865 1 16.0515 14.2680 5.3505
866 1 16.0515 16.0515 3.5670
867 1 15.1598 15.1598 4.4588
868 1 16.9432 16.9432 4.4588
869 1 18.7268 16.9432 2.6752
870 1 20.5102 15.1598 2.6752
871 1 17.8350 14.2680 3.5670
872 1 17.8350 16.0515 5.3505
873 1 19.6185 14.2680 5.3505
874 1 19.6185 16.0515 3.5670
875 1 18.7268 15.1598 4.4588
876 1 20.5102 16.9432 4.4588
877 1 22.2938 16.9432 2.6752
878 1 24.0772 15.1598 2.6752
879 1 21.4020 14.2680 3.5670
880 1 21.4020 16.0515 5.3505
881 1 23.1855 14.2680 5.3505
882 1 23.1855 16.0515 3.5670
883 1 22.2938 15.1598 4.4588
884 1 24.0772 16.9432 4.4588
885 1 25.8608 16.9432 2.6752
886 1 27.6442 15.1598 2.6752
887 1 24.9690 14.2680 3.5670
888 1 24.9690 16.0515 5.3505
889 1 26.7525 14.2680 5.3505
890 1 26.7525 16.0515 3.5670
891 1 25.8608 15.1598 4.4588
892 1 27.6442 16.9432 4.4588
893 1 29.4278 16.9432 2.6752
894 1 31.2112 15.1598 2.6752
895 1 28.5360 14.2680 3.5670
896 1 28.5360 16.0515 5.3505
897 1 30.3195 14.2680 5.3505
898 1 30.3195 16.0515 3.5670
899 1 29.4278 15.1598 4.4588
900 1 31.2112 16.9432 4.4588
901 1 0.8918 20.5102 2.6752
902 1 2.6752 18.7268 2.6752
903 1 0.0000 17.8350 3.5670
904 1 0.0000 19.6185 5.3505
905 1 1.7835 17.8350 5.3505
906 1 1.7835 19.6185 3.5670
907 1 0.8918 18.7268 4.4588
908 1 2.6752 20.5102 4.4588
909 1 4.4588 20.5102 2.6752
910 1 6.2422 18.7268 2.6752
911 1 3.5670 17.8350 3.5670
912 1 3.5670 19.6185 5.3505
913 1 5.3505 17.8350 5.3505
914 1 5.3505 19.6185 3.5670
915 1 4.4588 18.7268 4.4588
916 1 6.2422 20.5102 4.4588
917 1 8.0258 20.5102 2.6752
918 1 9.8092 18.7268 2.6752
919 1 7.1340 17.8350 3.5670
920 1 7.1340 19.6185 5.3505
921 1 8.9175 17.8350 5.3505
922 1 8.9175 19.6185 3.5670
923 1 8.0258 18.7268 4.4588
924 1 9.8092 20.5102 4.4588
925 1 11.5928 20.5102 2.6752
926 1 13.3763 18.7268 2.6752
927 1 10.7010 17.8350 3.5670
928 1 10.7010 19.6185 5.3505
929 1 12.4845 17.8350 5.3505
930 1 12.4845 19.6185 3.5670
931 1 11.5928 18.7268 4.4588
932 1 13.3763 20.5102 4.4588
933 1 15.1598 20.5102 2.6752
934 1 16.9432 18.7268 2.6752
935 1 14.2680 17.8350 3.5670
936 1 14.2680 19.6185 5.3505
937 1 16.0515 17.8350 5.3505
938 1 16.0515 19.6185 3.5670
939 1 15.1598 18.7268 4.4588
940 1 16.9432 20.5102 4.4588
941 1 18.7268 20.5102 2.6752
942 1 20.5102 18.7268 2.6752
943 1 17.8350 17.8350 3.5670
944 1 17.8350 19.6185 5.3505
945 1 19.6185 17.8350 5.3505
946 1 19.6185 19.6185 3.5670
947 1 18.7268 18.7268 4.4588
948 1 20.5102 20.5102 4.4588
949 1 22.2938 20.5102 2.6752
950 1 24.0772 18.7268 2.6752
951 1 21.4020 17.8350 3.5670
952 1 21.4020 19.6185 5.3505
953 1 23.1855 17.8350 5.3505
954 1 23.1855 19.6185 3.5670
955 1 22.2938 18.7268 4.4588
956 1 24.0772 20.5102 4.4588
957 1 25.8608 20.5102 2.6752
958 1 27.6442 18.7268 2.6752
959 1 24.9690 17.8350 3.5670
960 1 24.9690 19.6185 5.3505
961 1 26.7525 17.8350 5.3505
962 1 26.7525 19.6185 3.5670
963 1 25.8608 18.7268 4.4588
964 1 27.6442 20.5102 4.4588
965 1 29.4278 20.5102 2.6752
966 1 31.2112 18.7268 2.6752
967 1 28.5360 17.8350 3.5670
968 1 28.5360 19.6185 5.3505
969 1 30.3195 17.8350 5.3505
970 1 30.3195 19.6185 3.5670
971 1 29.4278 18.7268 4.4588
972 1 31.2112 20.5102 4.4588
973 1 0.8918 24.0772 2.6752
974 1 2.6752 22.2938 2.6752
975 1 0.0000 21.4020 3.5670
976 1 0.0000 23.1855 5.3505
977 1 1.7835 21.4020 5.3505
978 1 1.7835 23.1855 3.5670
979 1 0.8918 22.2938 4.4588
980 1 2.6752 24.0772 4.4588
981 1 4.4588 24.0772 2.6752
982 1 6.2422 22.2938 2.6752
983 1 3.5670 21.4020 3.5670
984 1 3.5670 23.1855 5.3505
985 1 5.3505 21.4020 5.3505
986 1 5.3505 23.1855 3.5670
987 1 4.4588 22.2938 4.4588
988 1 6.2422 24.0772 4.4588
989 1 8.0258 24.0772 2.6752
990 1 9.8092 22.2938 2.6752
991 1 7.1340 21.4020 3.5670
992 1 7.1340 23.1855 5.3505
993 1 8.9175 21.4020 5.3505
994 1 8.9175 23.1855 3.5670
995 1 8.0258 22.2938 4.4588
996 1 9.8092 24.0772 4.4588
997 1 11.5928 24.0772 2.6752
998 1 13.3763 22.2938 2.6752
999 1 10.7010 21.4020 3.5670
1000 1 10.7010 23.1855 5.3505
1001 1 12.4845 21.4020 5.3505
1002 1 12.4845 23.1855 3.5670
1003 1 11.5928 22.2938 4.4588
1004 1 13.3763 24.0772 4.4588
1005 1 15.1598 24.0772 2.6752
1006 1 16.9432 22.2938 2.6752
1007 1 14.2680 21.4020 3.5670
1008 1 14.2680 23.1855 5.3505
1009 1 16.0515 21.4020 5.3505
1010 1 16.0515 23.1855 3.5670
1011 1 15.1598 22.2938 4.4588
1012 1 16.9432 24.0772 4.4588
1013 1 18.7268 24.0772 2.6752
1014 1 20.5102 22.2938 2.6752
1015 1 17.8350 21.4020 3.5670
1016 1 17.8350 23.1855 5.3505
1017 1 19.6185 21.4020 5.3505
1018 1 19.6185 23.1855 3.5670
1019 1 18.7268 22.2938 4.4588
1020 1 20.5102 24.0772 4.4588
1021 1 22.2938 24.0772 2.6752
1022 1 24.0772 22.2938 2.6752
1023 1 21.4020 21.4020 3.5670
1024 1 21.4020 23.1855 5.3505
1025 1 23.1855 21.4020 5.3505
1026 1 23.1855 23.1855 3.5670
1027 1 22.2938 22.2938 4.4588
1028 1 24.0772 24.0772 4.4588
1029 1 25.8608 24.0772 2.6752
1030 1 27.6442 22.2938 2.6752
1031 1 24.9690 21.4020 3.5670
1032 1 24.9690 23.1855 5.3505
1033 1 26.7525 21.4020 5.3505
1034 1 26.7525 23.1855 3.5670
1035 1 25.8608 22.2938 4.4588
1036 1 27.6442 24.0772 4.4588
1037 1 29.4278 24.0772 2.6752
1038 1 31.2112 22.2938 2.6752
1039 1 28.5360 21.4020 3.5670
1040 1 28.5360 23.1855 5.3505
1041 1 30.3195 21.4020 5.3505
1042 1 30.3195 23.1855 3.5670
1043 1 29.4278 22.2938 4.4588
1044 1 31.2112 24.0772 4.4588
1045 1 0.8918 27.6442 2.6752
1046 1 2.6752 25.8608 2.6752
1047 1 0.0000 24.9690 3.5670
1048 1 0.0000 26.7525 5.3505
1049 1 1.7835 24.9690 5.3505
1050 1 1.7835 26.7525 3.5670
1051 1 0.8918 25.8608 4.4588
1052 1 2.6752 27.6442 4.4588
1053 1 4.4588 27.6442 2.6752
1054 1 6.2422 25.8608 2.6752
1055 1 3.5670 24.9690 3.5670