LAMMPS data file from restart file: timestep = 1, procs = 1

206 atoms

3 atom types

0.0000 8.9163 xlo xhi
0.0000 19.8146 ylo yhi
-50 71.34 zlo zhi

Masses

1 12.01
2 2
3 3

Atoms

1 1 0.0000 0.8917 0.0000
2 1 0.0000 4.4587 0.0000
3 1 0.0000 8.0257 0.0000
4 1 0.0000 11.5927 0.0000
5 1 0.0000 15.1597 0.0000
6 1 0.0000 18.7267 0.0000
7 1 1.2611 1.7834 0.0000
8 1 2.5223 0.8917 2.5223
9 1 2.5223 0.8917 0.0000
10 1 2.5223 0.0000 1.2611
11 1 3.7834 1.7834 0.0001
12 1 5.0445 0.8917 0.0000
13 1 1.2611 5.3504 0.0000
14 1 1.2611 2.6752 1.2611
15 1 2.5223 4.4587 2.5223
16 1 3.7834 2.6752 1.2611
17 1 2.5223 4.4587 0.0000
18 1 2.5223 3.5670 1.2611
19 1 3.7834 5.3504 0.0001
20 1 5.0445 4.4587 0.0000
21 1 1.2611 8.9174 0.0000
22 1 1.2611 6.2422 1.2611
23 1 2.5223 8.0257 2.5223
24 1 3.7834 6.2422 1.2611
25 1 2.5223 8.0257 0.0000
26 1 2.5223 7.1340 1.2611
27 1 3.7834 8.9174 0.0001
28 1 5.0445 8.0257 0.0000
29 1 1.2611 12.4845 0.0000
30 1 1.2611 9.8092 1.2611
31 1 2.5223 11.5927 2.5223
32 1 3.7834 9.8092 1.2611
33 1 2.5223 11.5927 0.0000
34 1 2.5223 10.7010 1.2611
35 1 3.7834 12.4845 0.0001
36 1 5.0445 11.5927 0.0000
37 1 1.2611 16.0514 0.0000
38 1 1.2611 13.3762 1.2611
39 1 2.5223 15.1597 2.5223
40 1 3.7834 13.3762 1.2611
41 1 2.5223 15.1597 0.0000
42 1 2.5223 14.2680 1.2611
43 1 3.7834 16.0514 0.0001
44 1 5.0445 15.1597 0.0000
45 1 1.2611 19.6184 0.0000
46 1 1.2611 16.9432 1.2611
47 1 2.5223 18.7267 2.5223
48 1 3.7834 16.9432 1.2611
49 1 2.5223 18.7267 0.0000
50 1 2.5223 17.8350 1.2611
51 1 3.7834 19.6184 0.0001
52 1 5.0445 18.7267 0.0000
53 1 3.7834 1.7834 2.5222
54 1 5.0445 0.0000 1.2611
55 1 5.0445 0.8917 2.5223
56 1 5.0446 0.0000 3.7834
57 1 6.3056 1.7834 2.5223
58 1 6.3056 1.7834 0.0000
59 1 7.5668 0.8917 0.0000
60 1 7.5668 0.0000 1.2611
61 1 8.8279 1.7834 0.0001
62 1 3.7834 5.3504 2.5222
63 1 5.0445 3.5670 1.2611
64 1 3.7834 2.6752 3.7834
65 1 5.0445 4.4587 2.5223
66 1 5.0446 3.5670 3.7834
67 1 6.3056 5.3504 2.5223
68 1 6.3056 5.3504 0.0000
69 1 6.3056 2.6752 1.2611
70 1 7.5668 4.4587 0.0000
71 1 7.5668 3.5670 1.2611
72 1 8.8279 5.3504 0.0001
73 1 3.7834 8.9174 2.5222
74 1 5.0445 7.1340 1.2611
75 1 3.7834 6.2422 3.7834
76 1 5.0445 8.0257 2.5223
77 1 5.0446 7.1340 3.7834
78 1 6.3056 8.9174 2.5223
79 1 6.3056 8.9174 0.0000
80 1 6.3056 6.2422 1.2611
81 1 7.5668 8.0257 0.0000
82 1 7.5668 7.1340 1.2611
83 1 8.8279 8.9174 0.0001
84 1 3.7834 12.4845 2.5222
85 1 5.0445 10.7010 1.2611
86 1 3.7834 9.8092 3.7834
87 1 5.0445 11.5927 2.5223
88 1 5.0446 10.7010 3.7834
89 1 6.3056 12.4845 2.5223
90 1 6.3056 12.4845 0.0000
91 1 6.3056 9.8092 1.2611
92 1 7.5668 11.5927 0.0000
93 1 7.5668 10.7010 1.2611
94 1 8.8279 12.4845 0.0001
95 1 3.7834 16.0514 2.5222
96 1 5.0445 14.2680 1.2611
97 1 3.7834 13.3762 3.7834
98 1 5.0445 15.1597 2.5223
99 1 5.0446 14.2680 3.7834
100 1 6.3056 16.0514 2.5223
101 1 6.3056 16.0514 0.0000
102 1 6.3056 13.3762 1.2611
103 1 7.5668 15.1597 0.0000
104 1 7.5668 14.2680 1.2611
105 1 8.8279 16.0514 0.0001
106 1 3.7834 19.6184 2.5222
107 1 5.0445 17.8350 1.2611
108 1 3.7834 16.9432 3.7834
109 1 5.0445 18.7267 2.5223
110 1 5.0446 17.8350 3.7834
111 1 6.3056 19.6184 2.5223
112 1 6.3056 19.6184 0.0000
113 1 6.3056 16.9432 1.2611
114 1 7.5668 18.7267 0.0000
115 1 7.5668 17.8350 1.2611
116 1 8.8279 19.6184 0.0001
117 1 5.0445 0.8917 5.0445
118 1 6.3056 1.7834 5.0445
119 1 7.5667 0.0000 3.7834
120 1 7.5668 0.8917 5.0445
121 1 7.5668 0.0000 6.3056
122 1 8.8279 1.7834 5.0446
123 1 7.5668 0.8917 2.5223
124 1 8.8279 1.7834 2.5222
125 1 5.0445 4.4587 5.0445
126 1 6.3056 2.6752 3.7834
127 1 6.3056 5.3504 5.0445
128 1 7.5667 3.5670 3.7834
129 1 6.3056 2.6752 6.3056
130 1 7.5668 4.4587 5.0445
131 1 7.5668 3.5670 6.3056
132 1 8.8279 5.3504 5.0446
133 1 7.5668 4.4587 2.5223
134 1 8.8279 2.6752 1.2611
135 1 8.8279 5.3504 2.5222
136 1 8.8279 2.6752 3.7834
137 1 5.0445 8.0257 5.0445
138 1 6.3056 6.2422 3.7834
139 1 6.3056 8.9174 5.0445
140 1 7.5667 7.1340 3.7834
141 1 6.3056 6.2422 6.3056
142 1 7.5668 8.0257 5.0445
143 1 7.5668 7.1340 6.3056
144 1 8.8279 8.9174 5.0446
145 1 7.5668 8.0257 2.5223
146 1 8.8279 6.2422 1.2611
147 1 8.8279 8.9174 2.5222
148 1 8.8279 6.2422 3.7834
149 1 5.0445 11.5927 5.0445
150 1 6.3056 9.8092 3.7834
151 1 6.3056 12.4845 5.0445
152 1 7.5667 10.7010 3.7834
153 1 6.3056 9.8092 6.3056
154 1 7.5668 11.5927 5.0445
155 1 7.5668 10.7010 6.3056
156 1 8.8279 12.4845 5.0446
157 1 7.5668 11.5927 2.5223
158 1 8.8279 9.8092 1.2611
159 1 8.8279 12.4845 2.5222
160 1 8.8279 9.8092 3.7834
161 1 5.0445 15.1597 5.0445
162 1 6.3056 13.3762 3.7834
163 1 6.3056 16.0514 5.0445
164 1 7.5667 14.2680 3.7834
165 1 6.3056 13.3762 6.3056
166 1 7.5668 15.1597 5.0445
167 1 7.5668 14.2680 6.3056
168 1 8.8279 16.0514 5.0446
169 1 7.5668 15.1597 2.5223
170 1 8.8279 13.3762 1.2611
171 1 8.8279 16.0514 2.5222
172 1 8.8279 13.3762 3.7834
173 1 5.0445 18.7267 5.0445
174 1 6.3056 16.9432 3.7834
175 1 6.3056 19.6184 5.0445
176 1 7.5667 17.8350 3.7834
177 1 6.3056 16.9432 6.3056
178 1 7.5668 18.7267 5.0445
179 1 7.5668 17.8350 6.3056
180 1 8.8279 19.6184 5.0446
181 1 7.5668 18.7267 2.5223
182 1 8.8279 16.9432 1.2611
183 1 8.8279 19.6184 2.5222
184 1 8.8279 16.9432 3.7834
185 1 7.5668 0.8917 7.5668
186 1 8.8280 1.7834 7.5668
187 1 7.5668 4.4587 7.5668
188 1 8.8279 2.6752 6.3056
189 1 8.8280 5.3504 7.5668
190 1 8.8279 2.6752 8.8279
191 1 7.5668 8.0257 7.5668
192 1 8.8279 6.2422 6.3056
193 1 8.8280 8.9174 7.5668
194 1 8.8279 6.2422 8.8279
195 1 7.5668 11.5927 7.5668
196 1 8.8279 9.8092 6.3056
197 1 8.8280 12.4845 7.5668
198 1 8.8279 9.8092 8.8279
199 1 7.5668 15.1597 7.5668
200 1 8.8279 13.3762 6.3056
201 1 8.8280 16.0514 7.5668
202 1 8.8279 13.3762 8.8279
203 1 7.5668 18.7267 7.5668
204 1 8.8279 16.9432 6.3056
205 1 8.8280 19.6184 7.5668
206 1 8.8279 16.9432 8.8279
