LAMMPS data file from restart file: timestep = 1, procs = 1

854 atoms

3 atom types

0.0000 20.3799 xlo xhi
0.0000 28.0223 ylo yhi
-50 71.34 zlo zhi

Masses

1 12.01
2 2
3 3

Atoms

1 1 1.2611 6.3057 0.0000
2 1 1.2612 5.0446 0.8917
3 1 1.2612 2.5223 0.8917
4 1 1.2612 3.7835 0.0000
5 1 3.7834 3.7834 0.0000
6 1 3.7834 2.5223 0.8917
7 1 3.7834 0.0001 0.8917
8 1 3.7835 1.2612 0.0000
9 1 6.3056 1.2612 0.0000
10 1 6.3057 0.0001 0.8917
11 1 1.2611 11.3502 0.0000
12 1 1.2612 10.0891 0.8917
13 1 1.2612 7.5668 0.8917
14 1 1.2612 8.8280 0.0000
15 1 3.7834 8.8280 0.0000
16 1 3.7834 7.5668 0.8917
17 1 3.7834 5.0446 0.8917
18 1 3.7835 6.3057 0.0000
19 1 6.3057 6.3056 0.0000
20 1 6.3057 5.0446 0.8917
21 1 6.3057 2.5223 0.8917
22 1 6.3057 3.7835 0.0000
23 1 8.8279 3.7835 0.0000
24 1 8.8279 2.5223 0.8917
25 1 8.8279 0.0001 0.8917
26 1 8.8280 1.2612 0.0000
27 1 11.3501 1.2612 0.0000
28 1 1.2611 16.3947 0.0000
29 1 1.2612 15.1336 0.8917
30 1 1.2612 12.6113 0.8917
31 1 1.2612 13.8724 0.0000
32 1 3.7834 13.8724 0.0000
33 1 3.7834 12.6113 0.8917
34 1 3.7834 10.0891 0.8917
35 1 3.7835 11.3502 0.0000
36 1 6.3056 11.3502 0.0000
37 1 6.3057 10.0891 0.8917
38 1 6.3057 7.5668 0.8917
39 1 6.3057 8.8280 0.0000
40 1 8.8279 8.8279 0.0000
41 1 8.8279 7.5668 0.8917
42 1 8.8279 5.0446 0.8917
43 1 8.8280 6.3057 0.0000
44 1 11.3501 6.3057 0.0000
45 1 11.3502 5.0446 0.8917
46 1 11.3502 2.5223 0.8917
47 1 11.3502 3.7835 0.0000
48 1 13.8724 3.7835 0.0000
49 1 1.2612 20.1781 0.8917
50 1 1.2612 17.6558 0.8917
51 1 1.2612 18.9169 0.0000
52 1 3.7834 18.9170 0.0000
53 1 3.7834 17.6558 0.8917
54 1 3.7834 15.1336 0.8917
55 1 3.7835 16.3947 0.0000
56 1 6.3057 16.3948 0.0000
57 1 6.3057 15.1336 0.8917
58 1 6.3057 12.6113 0.8917
59 1 6.3057 13.8724 0.0000
60 1 8.8279 13.8725 0.0000
61 1 8.8279 12.6113 0.8917
62 1 8.8279 10.0891 0.8917
63 1 8.8280 11.3502 0.0000
64 1 11.3502 11.3502 0.0000
65 1 11.3502 10.0891 0.8917
66 1 11.3502 7.5668 0.8917
67 1 11.3502 8.8280 0.0000
68 1 13.8724 8.8280 0.0000
69 1 13.8724 7.5668 0.8917
70 1 13.8724 5.0446 0.8917
71 1 13.8725 6.3057 0.0000
72 1 16.3947 6.3058 0.0000
73 1 3.7834 22.7003 0.8917
74 1 3.7834 20.1781 0.8917
75 1 3.7835 21.4392 0.0000
76 1 6.3056 21.4392 0.0000
77 1 6.3057 20.1781 0.8917
78 1 6.3057 17.6558 0.8917
79 1 6.3057 18.9169 0.0000
80 1 8.8279 18.9169 0.0000
81 1 8.8279 17.6558 0.8917
82 1 8.8279 15.1336 0.8917
83 1 8.8280 16.3947 0.0000
84 1 11.3501 16.3947 0.0000
85 1 11.3502 15.1336 0.8917
86 1 11.3502 12.6113 0.8917
87 1 11.3502 13.8724 0.0000
88 1 13.8724 13.8724 0.0000
89 1 13.8724 12.6113 0.8917
90 1 13.8724 10.0891 0.8917
91 1 13.8725 11.3502 0.0000
92 1 16.3946 11.3502 0.0000
93 1 16.3947 10.0891 0.8917
94 1 16.3947 7.5668 0.8917
95 1 16.3947 8.8280 0.0000
96 1 18.9169 8.8280 0.0000
97 1 6.3057 25.2226 0.8917
98 1 6.3057 22.7003 0.8917
99 1 6.3057 23.9614 0.0000
100 1 8.8279 23.9614 0.0000
101 1 8.8279 22.7003 0.8917
102 1 8.8279 20.1781 0.8917
103 1 8.8280 21.4392 0.0000
104 1 11.3501 21.4392 0.0000
105 1 11.3502 20.1781 0.8917
106 1 11.3502 17.6558 0.8917
107 1 11.3502 18.9169 0.0000
108 1 13.8724 18.9169 0.0000
109 1 13.8724 17.6558 0.8917
110 1 13.8724 15.1336 0.8917
111 1 13.8725 16.3947 0.0000
112 1 16.3947 16.3946 0.0000
113 1 16.3947 15.1336 0.8917
114 1 16.3947 12.6113 0.8917
115 1 16.3947 13.8724 0.0000
116 1 18.9169 13.8724 0.0000
117 1 18.9169 12.6113 0.8917
118 1 18.9169 10.0891 0.8917
119 1 18.9170 11.3502 0.0000
120 1 8.8279 27.7448 0.8917
121 1 8.8279 25.2226 0.8917
122 1 8.8280 26.4837 0.0000
123 1 11.3501 26.4837 0.0000
124 1 11.3502 25.2226 0.8917
125 1 11.3502 22.7003 0.8917
126 1 11.3502 23.9614 0.0000
127 1 13.8724 23.9614 0.0000
128 1 13.8724 22.7003 0.8917
129 1 13.8724 20.1781 0.8917
130 1 13.8725 21.4392 0.0000
131 1 16.3946 21.4392 0.0000
132 1 16.3947 20.1781 0.8917
133 1 16.3947 17.6558 0.8917
134 1 16.3947 18.9169 0.0000
135 1 18.9169 18.9169 0.0000
136 1 18.9169 17.6558 0.8917
137 1 18.9169 15.1336 0.8917
138 1 18.9170 16.3947 0.0000
139 1 11.3502 27.7448 0.8917
140 1 13.8724 27.7448 0.8917
141 1 13.8724 25.2226 0.8917
142 1 13.8725 26.4837 0.0000
143 1 16.3946 26.4837 0.0000
144 1 16.3947 25.2226 0.8917
145 1 16.3947 22.7003 0.8917
146 1 16.3947 23.9614 0.0000
147 1 18.9169 23.9614 0.0000
148 1 18.9169 22.7003 0.8917
149 1 18.9169 20.1781 0.8917
150 1 18.9170 21.4392 0.0000
151 1 0.0000 7.5668 1.7834
152 1 0.0000 5.0446 1.7834
153 1 0.0000 6.3057 2.6752
154 1 1.2611 6.3057 3.5670
155 1 2.5223 5.0445 1.7834
156 1 2.5224 2.5223 1.7834
157 1 0.0000 3.7835 2.6752
158 1 1.2612 5.0446 4.4587
159 1 1.2612 2.5223 4.4587
160 1 2.5223 3.7835 2.6752
161 1 1.2612 3.7835 3.5670
162 1 3.7834 3.7834 3.5670
163 1 5.0445 2.5223 1.7834
164 1 5.0445 0.0001 1.7834
165 1 2.5223 1.2612 2.6752
166 1 3.7834 2.5223 4.4587
167 1 3.7834 0.0001 4.4587
168 1 5.0445 1.2612 2.6752
169 1 3.7835 1.2612 3.5670
170 1 6.3056 1.2612 3.5670
171 1 7.5668 0.0000 1.7834
172 1 6.3057 0.0001 4.4587
173 1 0.0000 12.6113 1.7834
174 1 0.0000 10.0891 1.7834
175 1 0.0000 11.3502 2.6752
176 1 1.2611 11.3502 3.5670
177 1 2.5223 10.0890 1.7834
178 1 2.5223 7.5669 1.7834
179 1 0.0000 8.8280 2.6752
180 1 1.2612 10.0891 4.4587
181 1 1.2612 7.5668 4.4587
182 1 2.5223 8.8280 2.6752
183 1 1.2612 8.8280 3.5670
184 1 3.7834 8.8280 3.5670
185 1 5.0445 7.5668 1.7834
186 1 5.0446 5.0446 1.7834
187 1 2.5223 6.3057 2.6752
188 1 3.7834 7.5668 4.4587
189 1 3.7834 5.0446 4.4587
190 1 5.0445 6.3057 2.6752
191 1 3.7835 6.3057 3.5670
192 1 6.3057 6.3056 3.5670
193 1 7.5668 5.0445 1.7834
194 1 7.5668 2.5224 1.7834
195 1 5.0445 3.7835 2.6752
196 1 6.3057 5.0446 4.4587
197 1 6.3057 2.5223 4.4587
198 1 7.5668 3.7835 2.6752
199 1 6.3057 3.7835 3.5670
200 1 8.8279 3.7835 3.5670
201 1 10.0890 2.5223 1.7834
202 1 10.0890 0.0001 1.7834
203 1 7.5668 1.2612 2.6752
204 1 8.8279 2.5223 4.4587
205 1 8.8279 0.0001 4.4587
206 1 10.0890 1.2612 2.6752
207 1 8.8280 1.2612 3.5670
208 1 11.3501 1.2612 3.5670
209 1 0.0000 17.6558 1.7834
210 1 0.0000 15.1336 1.7834
211 1 0.0000 16.3947 2.6752
212 1 1.2611 16.3947 3.5670
213 1 2.5223 15.1335 1.7834
214 1 2.5223 12.6114 1.7834
215 1 0.0000 13.8724 2.6752
216 1 1.2612 15.1336 4.4587
217 1 1.2612 12.6113 4.4587
218 1 2.5223 13.8724 2.6752
219 1 1.2612 13.8724 3.5670
220 1 3.7834 13.8724 3.5670
221 1 5.0445 12.6113 1.7834
222 1 5.0445 10.0891 1.7834
223 1 2.5223 11.3502 2.6752
224 1 3.7834 12.6113 4.4587
225 1 3.7834 10.0891 4.4587
226 1 5.0445 11.3502 2.6752
227 1 3.7835 11.3502 3.5670
228 1 6.3056 11.3502 3.5670
229 1 7.5668 10.0890 1.7834
230 1 7.5669 7.5668 1.7834
231 1 5.0445 8.8280 2.6752
232 1 6.3057 10.0891 4.4587
233 1 6.3057 7.5668 4.4587
234 1 7.5668 8.8280 2.6752
235 1 6.3057 8.8280 3.5670
236 1 8.8279 8.8279 3.5670
237 1 10.0890 7.5668 1.7834
238 1 10.0890 5.0446 1.7834
239 1 7.5668 6.3057 2.6752
240 1 8.8279 7.5668 4.4587
241 1 8.8279 5.0446 4.4587
242 1 10.0890 6.3057 2.6752
243 1 8.8280 6.3057 3.5670
244 1 11.3501 6.3057 3.5670
245 1 12.6113 5.0445 1.7834
246 1 12.6113 2.5224 1.7834
247 1 10.0890 3.7835 2.6752
248 1 11.3502 5.0446 4.4587
249 1 11.3502 2.5223 4.4587
250 1 12.6113 3.7835 2.6752
251 1 11.3502 3.7835 3.5670
252 1 13.8724 3.7835 3.5670
253 1 2.5224 20.1781 1.7834
254 1 2.5223 17.6559 1.7834
255 1 0.0000 18.9169 2.6752
256 1 1.2612 20.1781 4.4587
257 1 1.2612 17.6558 4.4587
258 1 2.5223 18.9169 2.6752
259 1 1.2612 18.9169 3.5670
260 1 3.7834 18.9170 3.5670
261 1 5.0446 17.6558 1.7834
262 1 5.0445 15.1336 1.7834
263 1 2.5223 16.3947 2.6752
264 1 3.7834 17.6558 4.4587
265 1 3.7834 15.1336 4.4587
266 1 5.0445 16.3947 2.6752
267 1 3.7835 16.3947 3.5670
268 1 6.3057 16.3948 3.5670
269 1 7.5669 15.1336 1.7834
270 1 7.5668 12.6114 1.7834
271 1 5.0445 13.8724 2.6752
272 1 6.3057 15.1336 4.4587
273 1 6.3057 12.6113 4.4587
274 1 7.5668 13.8724 2.6752
275 1 6.3057 13.8724 3.5670
276 1 8.8279 13.8725 3.5670
277 1 10.0891 12.6113 1.7834
278 1 10.0891 10.0891 1.7834
279 1 7.5668 11.3502 2.6752
280 1 8.8279 12.6113 4.4587
281 1 8.8279 10.0891 4.4587
282 1 10.0890 11.3502 2.6752
283 1 8.8280 11.3502 3.5670
284 1 11.3502 11.3502 3.5670
285 1 12.6114 10.0891 1.7834
286 1 12.6113 7.5669 1.7834
287 1 10.0890 8.8280 2.6752
288 1 11.3502 10.0891 4.4587
289 1 11.3502 7.5668 4.4587
290 1 12.6113 8.8280 2.6752
291 1 11.3502 8.8280 3.5670
292 1 13.8724 8.8280 3.5670
293 1 15.1336 7.5668 1.7834
294 1 15.1335 5.0446 1.7834
295 1 12.6113 6.3057 2.6752
296 1 13.8724 7.5668 4.4587
297 1 13.8724 5.0446 4.4587
298 1 15.1335 6.3057 2.6752
299 1 13.8725 6.3057 3.5670
300 1 16.3947 6.3058 3.5670
301 1 5.0445 22.7003 1.7834
302 1 5.0445 20.1781 1.7834
303 1 2.5223 21.4392 2.6752
304 1 3.7834 22.7003 4.4587
305 1 3.7834 20.1781 4.4587
306 1 5.0445 21.4392 2.6752
307 1 3.7835 21.4392 3.5670
308 1 6.3056 21.4392 3.5670
309 1 7.5668 20.1780 1.7834
310 1 7.5668 17.6559 1.7834
311 1 5.0445 18.9169 2.6752
312 1 6.3057 20.1781 4.4587
313 1 6.3057 17.6558 4.4587
314 1 7.5668 18.9169 2.6752
315 1 6.3057 18.9169 3.5670
316 1 8.8279 18.9169 3.5670
317 1 10.0890 17.6558 1.7834
318 1 10.0890 15.1336 1.7834
319 1 7.5668 16.3947 2.6752
320 1 8.8279 17.6558 4.4587
321 1 8.8279 15.1336 4.4587
322 1 10.0890 16.3947 2.6752
323 1 8.8280 16.3947 3.5670
324 1 11.3501 16.3947 3.5670
325 1 12.6113 15.1335 1.7834
326 1 12.6114 12.6113 1.7834
327 1 10.0890 13.8724 2.6752
328 1 11.3502 15.1336 4.4587
329 1 11.3502 12.6113 4.4587
330 1 12.6113 13.8724 2.6752
331 1 11.3502 13.8724 3.5670
332 1 13.8724 13.8724 3.5670
333 1 15.1335 12.6113 1.7834
334 1 15.1335 10.0891 1.7834
335 1 12.6113 11.3502 2.6752
336 1 13.8724 12.6113 4.4587
337 1 13.8724 10.0891 4.4587
338 1 15.1335 11.3502 2.6752
339 1 13.8725 11.3502 3.5670
340 1 16.3946 11.3502 3.5670
341 1 17.6558 10.0890 1.7834
342 1 17.6558 7.5669 1.7834
343 1 15.1335 8.8280 2.6752
344 1 16.3947 10.0891 4.4587
345 1 16.3947 7.5668 4.4587
346 1 17.6558 8.8280 2.6752
347 1 16.3947 8.8280 3.5670
348 1 18.9169 8.8280 3.5670
349 1 7.5668 25.2225 1.7834
350 1 7.5668 22.7004 1.7834
351 1 5.0445 23.9614 2.6752
352 1 6.3057 25.2226 4.4587
353 1 6.3057 22.7003 4.4587
354 1 7.5668 23.9614 2.6752
355 1 6.3057 23.9614 3.5670
356 1 8.8279 23.9614 3.5670
357 1 10.0890 22.7003 1.7834
358 1 10.0890 20.1781 1.7834
359 1 7.5668 21.4392 2.6752
360 1 8.8279 22.7003 4.4587
361 1 8.8279 20.1781 4.4587
362 1 10.0890 21.4392 2.6752
363 1 8.8280 21.4392 3.5670
364 1 11.3501 21.4392 3.5670
365 1 12.6113 20.1780 1.7834
366 1 12.6113 17.6559 1.7834
367 1 10.0890 18.9169 2.6752
368 1 11.3502 20.1781 4.4587
369 1 11.3502 17.6558 4.4587
370 1 12.6113 18.9169 2.6752
371 1 11.3502 18.9169 3.5670
372 1 13.8724 18.9169 3.5670
373 1 15.1335 17.6558 1.7834
374 1 15.1336 15.1336 1.7834
375 1 12.6113 16.3947 2.6752
376 1 13.8724 17.6558 4.4587
377 1 13.8724 15.1336 4.4587
378 1 15.1335 16.3947 2.6752
379 1 13.8725 16.3947 3.5670
380 1 16.3947 16.3946 3.5670
381 1 17.6558 15.1335 1.7834
382 1 17.6558 12.6114 1.7834
383 1 15.1335 13.8724 2.6752
384 1 16.3947 15.1336 4.4587
385 1 16.3947 12.6113 4.4587
386 1 17.6558 13.8724 2.6752
387 1 16.3947 13.8724 3.5670
388 1 18.9169 13.8724 3.5670
389 1 20.1780 12.6113 1.7834
390 1 20.1780 10.0891 1.7834
391 1 17.6558 11.3502 2.6752
392 1 18.9169 12.6113 4.4587
393 1 18.9169 10.0891 4.4587
394 1 20.1780 11.3502 2.6752
395 1 18.9170 11.3502 3.5670
396 1 10.0890 27.7448 1.7834
397 1 10.0890 25.2226 1.7834
398 1 7.5668 26.4837 2.6752
399 1 8.8279 27.7448 4.4587
400 1 8.8279 25.2226 4.4587
401 1 10.0890 26.4837 2.6752
402 1 8.8280 26.4837 3.5670
403 1 11.3501 26.4837 3.5670
404 1 12.6113 25.2225 1.7834
405 1 12.6113 22.7004 1.7834
406 1 10.0890 23.9614 2.6752
407 1 11.3502 25.2226 4.4587
408 1 11.3502 22.7003 4.4587
409 1 12.6113 23.9614 2.6752
410 1 11.3502 23.9614 3.5670
411 1 13.8724 23.9614 3.5670
412 1 15.1335 22.7003 1.7834
413 1 15.1335 20.1781 1.7834
414 1 12.6113 21.4392 2.6752
415 1 13.8724 22.7003 4.4587
416 1 13.8724 20.1781 4.4587
417 1 15.1335 21.4392 2.6752
418 1 13.8725 21.4392 3.5670
419 1 16.3946 21.4392 3.5670
420 1 17.6558 20.1780 1.7834
421 1 17.6559 17.6558 1.7834
422 1 15.1335 18.9169 2.6752
423 1 16.3947 20.1781 4.4587
424 1 16.3947 17.6558 4.4587
425 1 17.6558 18.9169 2.6752
426 1 16.3947 18.9169 3.5670
427 1 18.9169 18.9169 3.5670
428 1 20.1780 17.6558 1.7834
429 1 20.1780 15.1336 1.7834
430 1 17.6558 16.3947 2.6752
431 1 18.9169 17.6558 4.4587
432 1 18.9169 15.1336 4.4587
433 1 20.1780 16.3947 2.6752
434 1 18.9170 16.3947 3.5670
435 1 20.1780 13.8724 2.6752
436 1 12.6113 27.7449 1.7834
437 1 11.3502 27.7448 4.4587
438 1 15.1335 27.7448 1.7834
439 1 15.1335 25.2226 1.7834
440 1 12.6113 26.4837 2.6752
441 1 13.8724 27.7448 4.4587
442 1 13.8724 25.2226 4.4587
443 1 15.1335 26.4837 2.6752
444 1 13.8725 26.4837 3.5670
445 1 16.3946 26.4837 3.5670
446 1 17.6558 25.2225 1.7834
447 1 17.6558 22.7004 1.7834
448 1 15.1335 23.9614 2.6752
449 1 16.3947 25.2226 4.4587
450 1 16.3947 22.7003 4.4587
451 1 17.6558 23.9614 2.6752
452 1 16.3947 23.9614 3.5670
453 1 18.9169 23.9614 3.5670
454 1 20.1780 22.7003 1.7834
455 1 20.1781 20.1781 1.7834
456 1 17.6558 21.4392 2.6752
457 1 18.9169 22.7003 4.4587
458 1 18.9169 20.1781 4.4587
459 1 20.1780 21.4392 2.6752
460 1 18.9170 21.4392 3.5670
461 1 20.1780 18.9169 2.6752
462 1 0.0000 7.5668 5.3504
463 1 0.0000 5.0446 5.3504
464 1 0.0000 6.3057 6.2422
465 1 1.2611 6.3057 7.1340
466 1 2.5223 5.0445 5.3504
467 1 2.5224 2.5223 5.3504
468 1 0.0000 3.7835 6.2422
469 1 2.5223 3.7835 6.2422
470 1 1.2612 3.7835 7.1340
471 1 3.7834 3.7834 7.1340
472 1 5.0445 2.5223 5.3504
473 1 5.0445 0.0001 5.3504
474 1 2.5223 1.2612 6.2422
475 1 5.0445 1.2612 6.2422
476 1 3.7835 1.2612 7.1340
477 1 6.3056 1.2612 7.1340
478 1 7.5668 0.0000 5.3504
479 1 0.0000 12.6113 5.3504
480 1 0.0000 10.0891 5.3504
481 1 0.0000 11.3502 6.2422
482 1 1.2611 11.3502 7.1340
483 1 2.5223 10.0890 5.3504
484 1 2.5223 7.5669 5.3504
485 1 0.0000 8.8280 6.2422
486 1 2.5223 8.8280 6.2422
487 1 1.2612 8.8280 7.1340
488 1 3.7834 8.8280 7.1340
489 1 5.0445 7.5668 5.3504
490 1 5.0446 5.0446 5.3504
491 1 2.5223 6.3057 6.2422
492 1 5.0445 6.3057 6.2422
493 1 3.7835 6.3057 7.1340
494 1 6.3057 6.3056 7.1340
495 1 7.5668 5.0445 5.3504
496 1 7.5668 2.5224 5.3504
497 1 5.0445 3.7835 6.2422
498 1 7.5668 3.7835 6.2422
499 1 6.3057 3.7835 7.1340
500 1 8.8279 3.7835 7.1340
501 1 10.0890 2.5223 5.3504
502 1 10.0890 0.0001 5.3504
503 1 7.5668 1.2612 6.2422
504 1 10.0890 1.2612 6.2422
505 1 8.8280 1.2612 7.1340
506 1 11.3501 1.2612 7.1340
507 1 0.0000 17.6558 5.3504
508 1 0.0000 15.1336 5.3504
509 1 0.0000 16.3947 6.2422
510 1 1.2611 16.3947 7.1340
511 1 2.5223 15.1335 5.3504
512 1 2.5223 12.6114 5.3504
513 1 0.0000 13.8724 6.2422
514 1 2.5223 13.8724 6.2422
515 1 1.2612 13.8724 7.1340
516 1 3.7834 13.8724 7.1340
517 1 5.0445 12.6113 5.3504
518 1 5.0445 10.0891 5.3504
519 1 2.5223 11.3502 6.2422
520 1 5.0445 11.3502 6.2422
521 1 3.7835 11.3502 7.1340
522 1 6.3056 11.3502 7.1340
523 1 7.5668 10.0890 5.3504
524 1 7.5669 7.5668 5.3504
525 1 5.0445 8.8280 6.2422
526 1 7.5668 8.8280 6.2422
527 1 6.3057 8.8280 7.1340
528 1 8.8279 8.8279 7.1340
529 1 10.0890 7.5668 5.3504
530 1 10.0890 5.0446 5.3504
531 1 7.5668 6.3057 6.2422
532 1 10.0890 6.3057 6.2422
533 1 8.8280 6.3057 7.1340
534 1 11.3501 6.3057 7.1340
535 1 12.6113 5.0445 5.3504
536 1 12.6113 2.5224 5.3504
537 1 10.0890 3.7835 6.2422
538 1 12.6113 3.7835 6.2422
539 1 11.3502 3.7835 7.1340
540 1 13.8724 3.7835 7.1340
541 1 2.5224 20.1781 5.3504
542 1 2.5223 17.6559 5.3504
543 1 0.0000 18.9169 6.2422
544 1 2.5223 18.9169 6.2422
545 1 1.2612 18.9169 7.1340
546 1 3.7834 18.9170 7.1340
547 1 5.0446 17.6558 5.3504
548 1 5.0445 15.1336 5.3504
549 1 2.5223 16.3947 6.2422
550 1 5.0445 16.3947 6.2422
551 1 3.7835 16.3947 7.1340
552 1 6.3057 16.3948 7.1340
553 1 7.5669 15.1336 5.3504
554 1 7.5668 12.6114 5.3504
555 1 5.0445 13.8724 6.2422
556 1 7.5668 13.8724 6.2422
557 1 6.3057 13.8724 7.1340
558 1 8.8279 13.8725 7.1340
559 1 10.0891 12.6113 5.3504
560 1 10.0891 10.0891 5.3504
561 1 7.5668 11.3502 6.2422
562 1 10.0890 11.3502 6.2422
563 1 8.8280 11.3502 7.1340
564 1 11.3502 11.3502 7.1340
565 1 12.6114 10.0891 5.3504
566 1 12.6113 7.5669 5.3504
567 1 10.0890 8.8280 6.2422
568 1 12.6113 8.8280 6.2422
569 1 11.3502 8.8280 7.1340
570 1 13.8724 8.8280 7.1340
571 1 15.1336 7.5668 5.3504
572 1 15.1335 5.0446 5.3504
573 1 12.6113 6.3057 6.2422
574 1 15.1335 6.3057 6.2422
575 1 13.8725 6.3057 7.1340
576 1 16.3947 6.3058 7.1340
577 1 5.0445 22.7003 5.3504
578 1 5.0445 20.1781 5.3504
579 1 2.5223 21.4392 6.2422
580 1 5.0445 21.4392 6.2422
581 1 3.7835 21.4392 7.1340
582 1 6.3056 21.4392 7.1340
583 1 7.5668 20.1780 5.3504
584 1 7.5668 17.6559 5.3504
585 1 5.0445 18.9169 6.2422
586 1 7.5668 18.9169 6.2422
587 1 6.3057 18.9169 7.1340
588 1 8.8279 18.9169 7.1340
589 1 10.0890 17.6558 5.3504
590 1 10.0890 15.1336 5.3504
591 1 7.5668 16.3947 6.2422
592 1 10.0890 16.3947 6.2422
593 1 8.8280 16.3947 7.1340
594 1 11.3501 16.3947 7.1340
595 1 12.6113 15.1335 5.3504
596 1 12.6114 12.6113 5.3504
597 1 10.0890 13.8724 6.2422
598 1 12.6113 13.8724 6.2422
599 1 11.3502 13.8724 7.1340
600 1 13.8724 13.8724 7.1340
601 1 15.1335 12.6113 5.3504
602 1 15.1335 10.0891 5.3504
603 1 12.6113 11.3502 6.2422
604 1 15.1335 11.3502 6.2422
605 1 13.8725 11.3502 7.1340
606 1 16.3946 11.3502 7.1340
607 1 17.6558 10.0890 5.3504
608 1 17.6558 7.5669 5.3504
609 1 15.1335 8.8280 6.2422
610 1 17.6558 8.8280 6.2422
611 1 16.3947 8.8280 7.1340
612 1 18.9169 8.8280 7.1340
613 1 7.5668 25.2225 5.3504
614 1 7.5668 22.7004 5.3504
615 1 5.0445 23.9614 6.2422
616 1 7.5668 23.9614 6.2422
617 1 6.3057 23.9614 7.1340
618 1 8.8279 23.9614 7.1340
619 1 10.0890 22.7003 5.3504
620 1 10.0890 20.1781 5.3504
621 1 7.5668 21.4392 6.2422
622 1 10.0890 21.4392 6.2422
623 1 8.8280 21.4392 7.1340
624 1 11.3501 21.4392 7.1340
625 1 12.6113 20.1780 5.3504
626 1 12.6113 17.6559 5.3504
627 1 10.0890 18.9169 6.2422
628 1 12.6113 18.9169 6.2422
629 1 11.3502 18.9169 7.1340
630 1 13.8724 18.9169 7.1340
631 1 15.1335 17.6558 5.3504
632 1 15.1336 15.1336 5.3504
633 1 12.6113 16.3947 6.2422
634 1 15.1335 16.3947 6.2422
635 1 13.8725 16.3947 7.1340
636 1 16.3947 16.3946 7.1340
637 1 17.6558 15.1335 5.3504
638 1 17.6558 12.6114 5.3504
639 1 15.1335 13.8724 6.2422
640 1 17.6558 13.8724 6.2422
641 1 16.3947 13.8724 7.1340
642 1 18.9169 13.8724 7.1340
643 1 20.1780 12.6113 5.3504
644 1 20.1780 10.0891 5.3504
645 1 17.6558 11.3502 6.2422
646 1 20.1780 11.3502 6.2422
647 1 18.9170 11.3502 7.1340
648 1 10.0890 27.7448 5.3504
649 1 10.0890 25.2226 5.3504
650 1 7.5668 26.4837 6.2422
651 1 10.0890 26.4837 6.2422
652 1 8.8280 26.4837 7.1340
653 1 11.3501 26.4837 7.1340
654 1 12.6113 25.2225 5.3504
655 1 12.6113 22.7004 5.3504
656 1 10.0890 23.9614 6.2422
657 1 12.6113 23.9614 6.2422
658 1 11.3502 23.9614 7.1340
659 1 13.8724 23.9614 7.1340
660 1 15.1335 22.7003 5.3504
661 1 15.1335 20.1781 5.3504
662 1 12.6113 21.4392 6.2422
663 1 15.1335 21.4392 6.2422
664 1 13.8725 21.4392 7.1340
665 1 16.3946 21.4392 7.1340
666 1 17.6558 20.1780 5.3504
667 1 17.6559 17.6558 5.3504
668 1 15.1335 18.9169 6.2422
669 1 17.6558 18.9169 6.2422
670 1 16.3947 18.9169 7.1340
671 1 18.9169 18.9169 7.1340
672 1 20.1780 17.6558 5.3504
673 1 20.1780 15.1336 5.3504
674 1 17.6558 16.3947 6.2422
675 1 20.1780 16.3947 6.2422
676 1 18.9170 16.3947 7.1340
677 1 20.1780 13.8724 6.2422
678 1 12.6113 27.7449 5.3504
679 1 15.1335 27.7448 5.3504
680 1 15.1335 25.2226 5.3504
681 1 12.6113 26.4837 6.2422
682 1 15.1335 26.4837 6.2422
683 1 13.8725 26.4837 7.1340
684 1 16.3946 26.4837 7.1340
685 1 17.6558 25.2225 5.3504
686 1 17.6558 22.7004 5.3504
687 1 15.1335 23.9614 6.2422
688 1 17.6558 23.9614 6.2422
689 1 16.3947 23.9614 7.1340
690 1 18.9169 23.9614 7.1340
691 1 20.1780 22.7003 5.3504
692 1 20.1781 20.1781 5.3504
693 1 17.6558 21.4392 6.2422
694 1 20.1780 21.4392 6.2422
695 1 18.9170 21.4392 7.1340
696 1 20.1780 18.9169 6.2422
697 1 0.0000 7.5668 8.9174
698 1 0.0000 5.0446 8.9174
699 1 1.2612 5.0446 8.0257
700 1 1.2612 2.5223 8.0257
701 1 2.5223 5.0445 8.9174
702 1 2.5224 2.5223 8.9174
703 1 3.7834 2.5223 8.0257
704 1 3.7834 0.0001 8.0257
705 1 5.0445 2.5223 8.9174
706 1 5.0445 0.0001 8.9174
707 1 6.3057 0.0001 8.0257
708 1 7.5668 0.0000 8.9174
709 1 0.0000 12.6113 8.9174
710 1 0.0000 10.0891 8.9174
711 1 1.2612 10.0891 8.0257
712 1 1.2612 7.5668 8.0257
713 1 2.5223 10.0890 8.9174
714 1 2.5223 7.5669 8.9174
715 1 3.7834 7.5668 8.0257
716 1 3.7834 5.0446 8.0257
717 1 5.0445 7.5668 8.9174
718 1 5.0446 5.0446 8.9174
719 1 6.3057 5.0446 8.0257
720 1 6.3057 2.5223 8.0257
721 1 7.5668 5.0445 8.9174
722 1 7.5668 2.5224 8.9174
723 1 8.8279 2.5223 8.0257
724 1 8.8279 0.0001 8.0257
725 1 10.0890 2.5223 8.9174
726 1 10.0890 0.0001 8.9174
727 1 0.0000 17.6558 8.9174
728 1 0.0000 15.1336 8.9174
729 1 1.2612 15.1336 8.0257
730 1 1.2612 12.6113 8.0257
731 1 2.5223 15.1335 8.9174
732 1 2.5223 12.6114 8.9174
733 1 3.7834 12.6113 8.0257
734 1 3.7834 10.0891 8.0257
735 1 5.0445 12.6113 8.9174
736 1 5.0445 10.0891 8.9174
737 1 6.3057 10.0891 8.0257
738 1 6.3057 7.5668 8.0257
739 1 7.5668 10.0890 8.9174
740 1 7.5669 7.5668 8.9174
741 1 8.8279 7.5668 8.0257
742 1 8.8279 5.0446 8.0257
743 1 10.0890 7.5668 8.9174
744 1 10.0890 5.0446 8.9174
745 1 11.3502 5.0446 8.0257
746 1 11.3502 2.5223 8.0257
747 1 12.6113 5.0445 8.9174
748 1 12.6113 2.5224 8.9174
749 1 1.2612 20.1781 8.0257
750 1 1.2612 17.6558 8.0257
751 1 2.5224 20.1781 8.9174
752 1 2.5223 17.6559 8.9174
753 1 3.7834 17.6558 8.0257
754 1 3.7834 15.1336 8.0257
755 1 5.0446 17.6558 8.9174
756 1 5.0445 15.1336 8.9174
757 1 6.3057 15.1336 8.0257
758 1 6.3057 12.6113 8.0257
759 1 7.5669 15.1336 8.9174
760 1 7.5668 12.6114 8.9174
761 1 8.8279 12.6113 8.0257
762 1 8.8279 10.0891 8.0257
763 1 10.0891 12.6113 8.9174
764 1 10.0891 10.0891 8.9174
765 1 11.3502 10.0891 8.0257
766 1 11.3502 7.5668 8.0257
767 1 12.6114 10.0891 8.9174
768 1 12.6113 7.5669 8.9174
769 1 13.8724 7.5668 8.0257
770 1 13.8724 5.0446 8.0257
771 1 15.1336 7.5668 8.9174
772 1 15.1335 5.0446 8.9174
773 1 3.7834 22.7003 8.0257
774 1 3.7834 20.1781 8.0257
775 1 5.0445 22.7003 8.9174
776 1 5.0445 20.1781 8.9174
777 1 6.3057 20.1781 8.0257
778 1 6.3057 17.6558 8.0257
779 1 7.5668 20.1780 8.9174
780 1 7.5668 17.6559 8.9174
781 1 8.8279 17.6558 8.0257
782 1 8.8279 15.1336 8.0257
783 1 10.0890 17.6558 8.9174
784 1 10.0890 15.1336 8.9174
785 1 11.3502 15.1336 8.0257
786 1 11.3502 12.6113 8.0257
787 1 12.6113 15.1335 8.9174
788 1 12.6114 12.6113 8.9174
789 1 13.8724 12.6113 8.0257
790 1 13.8724 10.0891 8.0257
791 1 15.1335 12.6113 8.9174
792 1 15.1335 10.0891 8.9174
793 1 16.3947 10.0891 8.0257
794 1 16.3947 7.5668 8.0257
795 1 17.6558 10.0890 8.9174
796 1 17.6558 7.5669 8.9174
797 1 6.3057 25.2226 8.0257
798 1 6.3057 22.7003 8.0257
799 1 7.5668 25.2225 8.9174
800 1 7.5668 22.7004 8.9174
801 1 8.8279 22.7003 8.0257
802 1 8.8279 20.1781 8.0257
803 1 10.0890 22.7003 8.9174
804 1 10.0890 20.1781 8.9174
805 1 11.3502 20.1781 8.0257
806 1 11.3502 17.6558 8.0257
807 1 12.6113 20.1780 8.9174
808 1 12.6113 17.6559 8.9174
809 1 13.8724 17.6558 8.0257
810 1 13.8724 15.1336 8.0257
811 1 15.1335 17.6558 8.9174
812 1 15.1336 15.1336 8.9174
813 1 16.3947 15.1336 8.0257
814 1 16.3947 12.6113 8.0257
815 1 17.6558 15.1335 8.9174
816 1 17.6558 12.6114 8.9174
817 1 18.9169 12.6113 8.0257
818 1 18.9169 10.0891 8.0257
819 1 20.1780 12.6113 8.9174
820 1 20.1780 10.0891 8.9174
821 1 8.8279 27.7448 8.0257
822 1 8.8279 25.2226 8.0257
823 1 10.0890 27.7448 8.9174
824 1 10.0890 25.2226 8.9174
825 1 11.3502 25.2226 8.0257
826 1 11.3502 22.7003 8.0257
827 1 12.6113 25.2225 8.9174
828 1 12.6113 22.7004 8.9174
829 1 13.8724 22.7003 8.0257
830 1 13.8724 20.1781 8.0257
831 1 15.1335 22.7003 8.9174
832 1 15.1335 20.1781 8.9174
833 1 16.3947 20.1781 8.0257
834 1 16.3947 17.6558 8.0257
835 1 17.6558 20.1780 8.9174
836 1 17.6559 17.6558 8.9174
837 1 18.9169 17.6558 8.0257
838 1 18.9169 15.1336 8.0257
839 1 20.1780 17.6558 8.9174
840 1 20.1780 15.1336 8.9174
841 1 11.3502 27.7448 8.0257
842 1 12.6113 27.7449 8.9174
843 1 13.8724 27.7448 8.0257
844 1 13.8724 25.2226 8.0257
845 1 15.1335 27.7448 8.9174
846 1 15.1335 25.2226 8.9174
847 1 16.3947 25.2226 8.0257
848 1 16.3947 22.7003 8.0257
849 1 17.6558 25.2225 8.9174
850 1 17.6558 22.7004 8.9174
851 1 18.9169 22.7003 8.0257
852 1 18.9169 20.1781 8.0257
853 1 20.1780 22.7003 8.9174
854 1 20.1781 20.1781 8.9174
