LAMMPS data file from restart file: timestep = 1, procs = 1

956 atoms

3 atom types

-2.0817 15.9220 xlo xhi
8.8525 26.8560 ylo yhi
-50 71.34 zlo zhi

Masses

1 12.01
2 2
3 3

Atoms

1 1 7.0827 9.2207 8.0258
2 1 8.7587 9.8307 6.2422
3 1 11.0446 8.7649 6.2422
4 1 9.9016 9.2978 7.1340
5 1 10.4347 10.4407 8.0258
6 1 12.1106 11.0507 6.2422
7 1 14.3964 9.9848 6.2422
8 1 13.2535 10.5178 7.1340
9 1 12.7206 9.3749 8.0258
10 1 13.7864 11.6607 8.0258
11 1 15.4625 12.2707 6.2422
12 1 15.5394 9.4518 7.1340
13 1 -1.3740 8.9897 7.1340
14 1 -0.8411 10.1326 8.0258
15 1 0.8350 10.7426 6.2422
16 1 3.1208 9.6767 6.2422
17 1 1.9779 10.2097 7.1340
18 1 1.4449 9.0668 8.0258
19 1 2.5108 11.3526 8.0258
20 1 4.1868 11.9626 6.2422
21 1 6.4726 10.8967 6.2422
22 1 4.2638 9.1437 7.1340
23 1 5.3297 11.4297 7.1340
24 1 4.7968 10.2868 8.0258
25 1 5.8627 12.5726 8.0258
26 1 7.5387 13.1826 6.2422
27 1 9.8246 12.1167 6.2422
28 1 7.6157 10.3637 7.1340
29 1 8.6816 12.6497 7.1340
30 1 8.1487 11.5068 8.0258
31 1 9.2147 13.7926 8.0258
32 1 10.8906 14.4026 6.2422
33 1 13.1764 13.3367 6.2422
34 1 10.9676 11.5837 7.1340
35 1 12.0335 13.8696 7.1340
36 1 11.5006 12.7267 8.0258
37 1 12.5665 15.0125 8.0258
38 1 14.2425 15.6226 6.2422
39 1 14.3194 12.8037 7.1340
40 1 15.3854 15.0896 7.1340
41 1 14.8525 13.9467 8.0258
42 1 -1.4511 11.8086 6.2422
43 1 -2.0611 13.4846 8.0258
44 1 -0.3851 14.0946 6.2422
45 1 1.9008 13.0286 6.2422
46 1 -0.3081 11.2756 7.1340
47 1 0.7579 13.5616 7.1340
48 1 0.2249 12.4187 8.0258
49 1 1.2908 14.7046 8.0258
50 1 2.9668 15.3146 6.2422
51 1 5.2527 14.2486 6.2422
52 1 3.0438 12.4956 7.1340
53 1 4.1098 14.7816 7.1340
54 1 3.5768 13.6387 8.0258
55 1 4.6427 15.9246 8.0258
56 1 6.3187 16.5346 6.2422
57 1 8.6046 15.4686 6.2422
58 1 6.3957 13.7156 7.1340
59 1 7.4616 16.0015 7.1340
60 1 6.9287 14.8586 8.0258
61 1 7.9946 17.1446 8.0258
62 1 9.6706 17.7546 6.2422
63 1 11.9564 16.6886 6.2422
64 1 9.7476 14.9356 7.1340
65 1 10.8135 17.2215 7.1340
66 1 10.2806 16.0786 8.0258
67 1 11.3464 18.3645 8.0258
68 1 13.0225 18.9746 6.2422
69 1 15.3083 17.9086 6.2422
70 1 13.0995 16.1556 7.1340
71 1 14.1654 18.4415 7.1340
72 1 13.6325 17.2986 8.0258
73 1 14.6983 19.5845 8.0258
74 1 -1.6050 17.4464 6.2422
75 1 0.6808 16.3805 6.2422
76 1 -1.5281 14.6275 7.1340
77 1 -0.4621 16.9135 7.1340
78 1 -0.9951 15.7706 8.0258
79 1 0.0708 18.0564 8.0258
80 1 1.7469 18.6664 6.2422
81 1 4.0327 17.6005 6.2422
82 1 1.8238 15.8475 7.1340
83 1 2.8898 18.1334 7.1340
84 1 2.3568 16.9905 8.0258
85 1 3.4227 19.2763 8.0258
86 1 5.0988 19.8864 6.2422
87 1 7.3847 18.8205 6.2422
88 1 5.1757 17.0675 7.1340
89 1 6.2417 19.3534 7.1340
90 1 5.7087 18.2105 8.0258
91 1 6.7747 20.4964 8.0258
92 1 8.4506 21.1064 6.2422
93 1 10.7364 20.0405 6.2422
94 1 8.5276 18.2875 7.1340
95 1 9.5935 20.5734 7.1340
96 1 9.0606 19.4305 8.0258
97 1 10.1265 21.7163 8.0258
98 1 11.8025 22.3263 6.2422
99 1 14.0883 21.2605 6.2422
100 1 11.8795 19.5075 7.1340
101 1 12.9454 21.7934 7.1340
102 1 12.4125 20.6505 8.0258
103 1 13.4784 22.9363 8.0258
104 1 15.1544 23.5463 6.2422
105 1 15.2314 20.7274 7.1340
106 1 15.7644 21.8705 8.0258
107 1 -0.5392 19.7324 6.2422
108 1 -1.6821 20.2653 7.1340
109 1 -1.1492 21.4082 8.0258
110 1 0.5269 22.0183 6.2422
111 1 2.8127 20.9524 6.2422
112 1 0.6038 19.1994 7.1340
113 1 1.6698 21.4853 7.1340
114 1 1.1368 20.3424 8.0258
115 1 2.2027 22.6282 8.0258
116 1 3.8788 23.2383 6.2422
117 1 6.1647 22.1724 6.2422
118 1 3.9557 20.4194 7.1340
119 1 5.0217 22.7053 7.1340
120 1 4.4887 21.5624 8.0258
121 1 5.5547 23.8482 8.0258
122 1 7.2307 24.4582 6.2422
123 1 9.5165 23.3924 6.2422
124 1 7.3076 21.6394 7.1340
125 1 8.3736 23.9253 7.1340
126 1 7.8406 22.7824 8.0258
127 1 8.9065 25.0682 8.0258
128 1 10.5825 25.6782 6.2422
129 1 12.8683 24.6123 6.2422
130 1 10.6595 22.8593 7.1340
131 1 11.7254 25.1453 7.1340
132 1 11.1925 24.0024 8.0258
133 1 12.2584 26.2882 8.0258
134 1 14.0114 24.0793 7.1340
135 1 15.0773 26.3653 7.1340
136 1 14.5444 25.2224 8.0258
137 1 -1.7592 23.0843 6.2422
138 1 -0.6931 25.3702 6.2422
139 1 1.5927 24.3043 6.2422
140 1 -0.6161 22.5513 7.1340
141 1 0.4498 24.8372 7.1340
142 1 -0.0831 23.6943 8.0258
143 1 0.9827 25.9801 8.0258
144 1 2.6588 26.5901 6.2422
145 1 4.9447 25.5243 6.2422
146 1 2.7357 23.7713 7.1340
147 1 3.8017 26.0572 7.1340
148 1 3.2687 24.9143 8.0258
149 1 6.0876 24.9912 7.1340
150 1 6.6206 26.1343 8.0258
151 1 9.4395 26.2112 7.1340
152 1 -1.8361 25.9032 7.1340
153 1 7.0827 9.2207 11.5928
154 1 8.7587 9.8307 9.8092
155 1 11.0446 8.7649 9.8092
156 1 9.9016 9.2978 10.7010
157 1 10.4347 10.4407 11.5928
158 1 11.5776 9.9078 8.9175
159 1 13.8635 8.8418 8.9175
160 1 12.1106 11.0507 9.8092
161 1 14.3964 9.9848 9.8092
162 1 13.2535 10.5178 10.7010
163 1 12.7206 9.3749 11.5928
164 1 13.7864 11.6607 11.5928
165 1 14.9294 11.1278 8.9175
166 1 15.4625 12.2707 9.8092
167 1 15.5394 9.4518 10.7010
168 1 -1.3740 8.9897 10.7010
169 1 -0.8411 10.1326 11.5928
170 1 0.3019 9.5997 8.9175
171 1 0.8350 10.7426 9.8092
172 1 3.1208 9.6767 9.8092
173 1 1.9779 10.2097 10.7010
174 1 1.4449 9.0668 11.5928
175 1 2.5108 11.3526 11.5928
176 1 3.6538 10.8197 8.9175
177 1 5.9397 9.7537 8.9175
178 1 4.1868 11.9626 9.8092
179 1 6.4726 10.8967 9.8092
180 1 4.2638 9.1437 10.7010
181 1 5.3297 11.4297 10.7010
182 1 4.7968 10.2868 11.5928
183 1 5.8627 12.5726 11.5928
184 1 7.0057 12.0397 8.9175
185 1 9.2916 10.9737 8.9175
186 1 7.5387 13.1826 9.8092
187 1 9.8246 12.1167 9.8092
188 1 7.6157 10.3637 10.7010
189 1 8.6816 12.6497 10.7010
190 1 8.1487 11.5068 11.5928
191 1 9.2147 13.7926 11.5928
192 1 10.3576 13.2597 8.9175
193 1 12.6435 12.1937 8.9175
194 1 10.8906 14.4026 9.8092
195 1 13.1764 13.3367 9.8092
196 1 10.9676 11.5837 10.7010
197 1 12.0335 13.8696 10.7010
198 1 11.5006 12.7267 11.5928
199 1 12.5665 15.0125 11.5928
200 1 13.7095 14.4796 8.9175
201 1 14.2425 15.6226 9.8092
202 1 14.3194 12.8037 10.7010
203 1 15.3854 15.0896 10.7010
204 1 14.8525 13.9467 11.5928
205 1 -1.9840 10.6656 8.9175
206 1 -1.4511 11.8086 9.8092
207 1 -2.0611 13.4846 11.5928
208 1 -0.9181 12.9516 8.9175
209 1 1.3679 11.8856 8.9175
210 1 -0.3851 14.0946 9.8092
211 1 1.9008 13.0286 9.8092
212 1 -0.3081 11.2756 10.7010
213 1 0.7579 13.5616 10.7010
214 1 0.2249 12.4187 11.5928
215 1 1.2908 14.7046 11.5928
216 1 2.4338 14.1716 8.9175
217 1 4.7198 13.1056 8.9175
218 1 2.9668 15.3146 9.8092
219 1 5.2527 14.2486 9.8092
220 1 3.0438 12.4956 10.7010
221 1 4.1098 14.7816 10.7010
222 1 3.5768 13.6387 11.5928
223 1 4.6427 15.9246 11.5928
224 1 5.7857 15.3916 8.9175
225 1 8.0716 14.3256 8.9175
226 1 6.3187 16.5346 9.8092
227 1 8.6046 15.4686 9.8092
228 1 6.3957 13.7156 10.7010
229 1 7.4616 16.0015 10.7010
230 1 6.9287 14.8586 11.5928
231 1 7.9946 17.1446 11.5928
232 1 9.1376 16.6115 8.9175
233 1 11.4235 15.5456 8.9175
234 1 9.6706 17.7546 9.8092
235 1 11.9564 16.6886 9.8092
236 1 9.7476 14.9356 10.7010
237 1 10.8135 17.2215 10.7010
238 1 10.2806 16.0786 11.5928
239 1 11.3464 18.3645 11.5928
240 1 12.4895 17.8315 8.9175
241 1 14.7754 16.7656 8.9175
242 1 13.0225 18.9746 9.8092
243 1 15.3083 17.9086 9.8092
244 1 13.0995 16.1556 10.7010
245 1 14.1654 18.4415 10.7010
246 1 13.6325 17.2986 11.5928
247 1 14.6983 19.5845 11.5928
248 1 0.1479 15.2375 8.9175
249 1 -1.6050 17.4464 9.8092
250 1 0.6808 16.3805 9.8092
251 1 -1.5281 14.6275 10.7010
252 1 -0.4621 16.9135 10.7010
253 1 -0.9951 15.7706 11.5928
254 1 0.0708 18.0564 11.5928
255 1 1.2138 17.5234 8.9175
256 1 3.4998 16.4575 8.9175
257 1 1.7469 18.6664 9.8092
258 1 4.0327 17.6005 9.8092
259 1 1.8238 15.8475 10.7010
260 1 2.8898 18.1334 10.7010
261 1 2.3568 16.9905 11.5928
262 1 3.4227 19.2763 11.5928
263 1 4.5657 18.7434 8.9175
264 1 6.8516 17.6775 8.9175
265 1 5.0988 19.8864 9.8092
266 1 7.3847 18.8205 9.8092
267 1 5.1757 17.0675 10.7010
268 1 6.2417 19.3534 10.7010
269 1 5.7087 18.2105 11.5928
270 1 6.7747 20.4964 11.5928
271 1 7.9176 19.9634 8.9175
272 1 10.2035 18.8975 8.9175
273 1 8.4506 21.1064 9.8092
274 1 10.7364 20.0405 9.8092
275 1 8.5276 18.2875 10.7010
276 1 9.5935 20.5734 10.7010
277 1 9.0606 19.4305 11.5928
278 1 10.1265 21.7163 11.5928
279 1 11.2695 21.1834 8.9175
280 1 13.5554 20.1175 8.9175
281 1 11.8025 22.3263 9.8092
282 1 14.0883 21.2605 9.8092
283 1 11.8795 19.5075 10.7010
284 1 12.9454 21.7934 10.7010
285 1 12.4125 20.6505 11.5928
286 1 13.4784 22.9363 11.5928
287 1 14.6214 22.4034 8.9175
288 1 15.1544 23.5463 9.8092
289 1 15.2314 20.7274 10.7010
290 1 15.7644 21.8705 11.5928
291 1 -1.0721 18.5894 8.9175
292 1 -0.5392 19.7324 9.8092
293 1 -1.6821 20.2653 10.7010
294 1 -1.1492 21.4082 11.5928
295 1 -0.0062 20.8753 8.9175
296 1 2.2798 19.8094 8.9175
297 1 0.5269 22.0183 9.8092
298 1 2.8127 20.9524 9.8092
299 1 0.6038 19.1994 10.7010
300 1 1.6698 21.4853 10.7010
301 1 1.1368 20.3424 11.5928
302 1 2.2027 22.6282 11.5928
303 1 3.3457 22.0953 8.9175
304 1 5.6317 21.0294 8.9175
305 1 3.8788 23.2383 9.8092
306 1 6.1647 22.1724 9.8092
307 1 3.9557 20.4194 10.7010
308 1 5.0217 22.7053 10.7010
309 1 4.4887 21.5624 11.5928
310 1 5.5547 23.8482 11.5928
311 1 6.6976 23.3153 8.9175
312 1 8.9835 22.2494 8.9175
313 1 7.2307 24.4582 9.8092
314 1 9.5165 23.3924 9.8092
315 1 7.3076 21.6394 10.7010
316 1 8.3736 23.9253 10.7010
317 1 7.8406 22.7824 11.5928
318 1 8.9065 25.0682 11.5928
319 1 10.0495 24.5353 8.9175
320 1 12.3354 23.4693 8.9175
321 1 10.5825 25.6782 9.8092
322 1 12.8683 24.6123 9.8092
323 1 10.6595 22.8593 10.7010
324 1 11.7254 25.1453 10.7010
325 1 11.1925 24.0024 11.5928
326 1 12.2584 26.2882 11.5928
327 1 13.4014 25.7553 8.9175
328 1 15.6873 24.6893 8.9175
329 1 14.0114 24.0793 10.7010
330 1 15.0773 26.3653 10.7010
331 1 14.5444 25.2224 11.5928
332 1 -1.7592 23.0843 9.8092
333 1 -1.2261 24.2272 8.9175
334 1 1.0598 23.1613 8.9175
335 1 -0.6931 25.3702 9.8092
336 1 1.5927 24.3043 9.8092
337 1 -0.6161 22.5513 10.7010
338 1 0.4498 24.8372 10.7010
339 1 -0.0831 23.6943 11.5928
340 1 0.9827 25.9801 11.5928
341 1 2.1257 25.4472 8.9175
342 1 4.4117 24.3813 8.9175
343 1 2.6588 26.5901 9.8092
344 1 4.9447 25.5243 9.8092
345 1 2.7357 23.7713 10.7010
346 1 3.8017 26.0572 10.7010
347 1 3.2687 24.9143 11.5928
348 1 7.7636 25.6012 8.9175
349 1 6.0876 24.9912 10.7010
350 1 6.6206 26.1343 11.5928
351 1 9.4395 26.2112 10.7010
352 1 -0.1602 26.5131 8.9175
353 1 -1.8361 25.9032 10.7010
354 1 7.0827 9.2207 15.1598
355 1 8.7587 9.8307 13.3763
356 1 11.0446 8.7649 13.3763
357 1 9.9016 9.2978 14.2680
358 1 10.4347 10.4407 15.1598
359 1 11.5776 9.9078 12.4845
360 1 13.8635 8.8418 12.4845
361 1 12.1106 11.0507 13.3763
362 1 14.3964 9.9848 13.3763
363 1 13.2535 10.5178 14.2680
364 1 12.7206 9.3749 15.1598
365 1 13.7864 11.6607 15.1598
366 1 14.9294 11.1278 12.4845
367 1 15.4625 12.2707 13.3763
368 1 15.5394 9.4518 14.2680
369 1 -1.3740 8.9897 14.2680
370 1 -0.8411 10.1326 15.1598
371 1 0.3019 9.5997 12.4845
372 1 0.8350 10.7426 13.3763
373 1 3.1208 9.6767 13.3763
374 1 1.9779 10.2097 14.2680
375 1 1.4449 9.0668 15.1598
376 1 2.5108 11.3526 15.1598
377 1 3.6538 10.8197 12.4845
378 1 5.9397 9.7537 12.4845
379 1 4.1868 11.9626 13.3763
380 1 6.4726 10.8967 13.3763
381 1 4.2638 9.1437 14.2680
382 1 5.3297 11.4297 14.2680
383 1 4.7968 10.2868 15.1598
384 1 5.8627 12.5726 15.1598
385 1 7.0057 12.0397 12.4845
386 1 9.2916 10.9737 12.4845
387 1 7.5387 13.1826 13.3763
388 1 9.8246 12.1167 13.3763
389 1 7.6157 10.3637 14.2680
390 1 8.6816 12.6497 14.2680
391 1 8.1487 11.5068 15.1598
392 1 9.2147 13.7926 15.1598
393 1 10.3576 13.2597 12.4845
394 1 12.6435 12.1937 12.4845
395 1 10.8906 14.4026 13.3763
396 1 13.1764 13.3367 13.3763
397 1 10.9676 11.5837 14.2680
398 1 12.0335 13.8696 14.2680
399 1 11.5006 12.7267 15.1598
400 1 12.5665 15.0125 15.1598
401 1 13.7095 14.4796 12.4845
402 1 14.2425 15.6226 13.3763
403 1 14.3194 12.8037 14.2680
404 1 15.3854 15.0896 14.2680
405 1 14.8525 13.9467 15.1598
406 1 -1.9840 10.6656 12.4845
407 1 -1.4511 11.8086 13.3763
408 1 -2.0611 13.4846 15.1598
409 1 -0.9181 12.9516 12.4845
410 1 1.3679 11.8856 12.4845
411 1 -0.3851 14.0946 13.3763
412 1 1.9008 13.0286 13.3763
413 1 -0.3081 11.2756 14.2680
414 1 0.7579 13.5616 14.2680
415 1 0.2249 12.4187 15.1598
416 1 1.2908 14.7046 15.1598
417 1 2.4338 14.1716 12.4845
418 1 4.7198 13.1056 12.4845
419 1 2.9668 15.3146 13.3763
420 1 5.2527 14.2486 13.3763
421 1 3.0438 12.4956 14.2680
422 1 4.1098 14.7816 14.2680
423 1 3.5768 13.6387 15.1598
424 1 4.6427 15.9246 15.1598
425 1 5.7857 15.3916 12.4845
426 1 8.0716 14.3256 12.4845
427 1 6.3187 16.5346 13.3763
428 1 8.6046 15.4686 13.3763
429 1 6.3957 13.7156 14.2680
430 1 7.4616 16.0015 14.2680
431 1 6.9287 14.8586 15.1598
432 1 7.9946 17.1446 15.1598
433 1 9.1376 16.6115 12.4845
434 1 11.4235 15.5456 12.4845
435 1 9.6706 17.7546 13.3763
436 1 11.9564 16.6886 13.3763
437 1 9.7476 14.9356 14.2680
438 1 10.8135 17.2215 14.2680
439 1 10.2806 16.0786 15.1598
440 1 11.3464 18.3645 15.1598
441 1 12.4895 17.8315 12.4845
442 1 14.7754 16.7656 12.4845
443 1 13.0225 18.9746 13.3763
444 1 15.3083 17.9086 13.3763
445 1 13.0995 16.1556 14.2680
446 1 14.1654 18.4415 14.2680
447 1 13.6325 17.2986 15.1598
448 1 14.6983 19.5845 15.1598
449 1 0.1479 15.2375 12.4845
450 1 -1.6050 17.4464 13.3763
451 1 0.6808 16.3805 13.3763
452 1 -1.5281 14.6275 14.2680
453 1 -0.4621 16.9135 14.2680
454 1 -0.9951 15.7706 15.1598
455 1 0.0708 18.0564 15.1598
456 1 1.2138 17.5234 12.4845
457 1 3.4998 16.4575 12.4845
458 1 1.7469 18.6664 13.3763
459 1 4.0327 17.6005 13.3763
460 1 1.8238 15.8475 14.2680
461 1 2.8898 18.1334 14.2680
462 1 2.3568 16.9905 15.1598
463 1 3.4227 19.2763 15.1598
464 1 4.5657 18.7434 12.4845
465 1 6.8516 17.6775 12.4845
466 1 5.0988 19.8864 13.3763
467 1 7.3847 18.8205 13.3763
468 1 5.1757 17.0675 14.2680
469 1 6.2417 19.3534 14.2680
470 1 5.7087 18.2105 15.1598
471 1 6.7747 20.4964 15.1598
472 1 7.9176 19.9634 12.4845
473 1 10.2035 18.8975 12.4845
474 1 8.4506 21.1064 13.3763
475 1 10.7364 20.0405 13.3763
476 1 8.5276 18.2875 14.2680
477 1 9.5935 20.5734 14.2680
478 1 9.0606 19.4305 15.1598
479 1 10.1265 21.7163 15.1598
480 1 11.2695 21.1834 12.4845
481 1 13.5554 20.1175 12.4845
482 1 11.8025 22.3263 13.3763
483 1 14.0883 21.2605 13.3763
484 1 11.8795 19.5075 14.2680
485 1 12.9454 21.7934 14.2680
486 1 12.4125 20.6505 15.1598
487 1 13.4784 22.9363 15.1598
488 1 14.6214 22.4034 12.4845
489 1 15.1544 23.5463 13.3763
490 1 15.2314 20.7274 14.2680
491 1 15.7644 21.8705 15.1598
492 1 -1.0721 18.5894 12.4845
493 1 -0.5392 19.7324 13.3763
494 1 -1.6821 20.2653 14.2680
495 1 -1.1492 21.4082 15.1598
496 1 -0.0062 20.8753 12.4845
497 1 2.2798 19.8094 12.4845
498 1 0.5269 22.0183 13.3763
499 1 2.8127 20.9524 13.3763
500 1 0.6038 19.1994 14.2680
501 1 1.6698 21.4853 14.2680
502 1 1.1368 20.3424 15.1598
503 1 2.2027 22.6282 15.1598
504 1 3.3457 22.0953 12.4845
505 1 5.6317 21.0294 12.4845
506 1 3.8788 23.2383 13.3763
507 1 6.1647 22.1724 13.3763
508 1 3.9557 20.4194 14.2680
509 1 5.0217 22.7053 14.2680
510 1 4.4887 21.5624 15.1598
511 1 5.5547 23.8482 15.1598
512 1 6.6976 23.3153 12.4845
513 1 8.9835 22.2494 12.4845
514 1 7.2307 24.4582 13.3763
515 1 9.5165 23.3924 13.3763
516 1 7.3076 21.6394 14.2680
517 1 8.3736 23.9253 14.2680
518 1 7.8406 22.7824 15.1598
519 1 8.9065 25.0682 15.1598
520 1 10.0495 24.5353 12.4845
521 1 12.3354 23.4693 12.4845
522 1 10.5825 25.6782 13.3763
523 1 12.8683 24.6123 13.3763
524 1 10.6595 22.8593 14.2680
525 1 11.7254 25.1453 14.2680
526 1 11.1925 24.0024 15.1598
527 1 12.2584 26.2882 15.1598
528 1 13.4014 25.7553 12.4845
529 1 15.6873 24.6893 12.4845
530 1 14.0114 24.0793 14.2680
531 1 15.0773 26.3653 14.2680
532 1 14.5444 25.2224 15.1598
533 1 -1.7592 23.0843 13.3763
534 1 -1.2261 24.2272 12.4845
535 1 1.0598 23.1613 12.4845
536 1 -0.6931 25.3702 13.3763
537 1 1.5927 24.3043 13.3763
538 1 -0.6161 22.5513 14.2680
539 1 0.4498 24.8372 14.2680
540 1 -0.0831 23.6943 15.1598
541 1 0.9827 25.9801 15.1598
542 1 2.1257 25.4472 12.4845
543 1 4.4117 24.3813 12.4845
544 1 2.6588 26.5901 13.3763
545 1 4.9447 25.5243 13.3763
546 1 2.7357 23.7713 14.2680
547 1 3.8017 26.0572 14.2680
548 1 3.2687 24.9143 15.1598
549 1 7.7636 25.6012 12.4845
550 1 6.0876 24.9912 14.2680
551 1 6.6206 26.1343 15.1598
552 1 9.4395 26.2112 14.2680
553 1 -0.1602 26.5131 12.4845
554 1 -1.8361 25.9032 14.2680
555 1 8.7587 9.8307 16.9432
556 1 11.0446 8.7649 16.9432
557 1 9.9016 9.2978 17.8350
558 1 11.5776 9.9078 16.0515
559 1 13.8635 8.8418 16.0515
560 1 12.1106 11.0507 16.9432
561 1 14.3964 9.9848 16.9432
562 1 13.2535 10.5178 17.8350
563 1 14.9294 11.1278 16.0515
564 1 15.4625 12.2707 16.9432
565 1 15.5394 9.4518 17.8350
566 1 -1.3740 8.9897 17.8350
567 1 0.3019 9.5997 16.0515
568 1 0.8350 10.7426 16.9432
569 1 3.1208 9.6767 16.9432
570 1 1.9779 10.2097 17.8350
571 1 3.6538 10.8197 16.0515
572 1 5.9397 9.7537 16.0515
573 1 4.1868 11.9626 16.9432
574 1 6.4726 10.8967 16.9432
575 1 4.2638 9.1437 17.8350
576 1 5.3297 11.4297 17.8350
577 1 7.0057 12.0397 16.0515
578 1 9.2916 10.9737 16.0515
579 1 7.5387 13.1826 16.9432
580 1 9.8246 12.1167 16.9432
581 1 7.6157 10.3637 17.8350
582 1 8.6816 12.6497 17.8350
583 1 10.3576 13.2597 16.0515
584 1 12.6435 12.1937 16.0515
585 1 10.8906 14.4026 16.9432
586 1 13.1764 13.3367 16.9432
587 1 10.9676 11.5837 17.8350
588 1 12.0335 13.8696 17.8350
589 1 13.7095 14.4796 16.0515
590 1 14.2425 15.6226 16.9432
591 1 14.3194 12.8037 17.8350
592 1 15.3854 15.0896 17.8350
593 1 -1.9840 10.6656 16.0515
594 1 -1.4511 11.8086 16.9432
595 1 -0.9181 12.9516 16.0515
596 1 1.3679 11.8856 16.0515
597 1 -0.3851 14.0946 16.9432
598 1 1.9008 13.0286 16.9432
599 1 -0.3081 11.2756 17.8350
600 1 0.7579 13.5616 17.8350
601 1 2.4338 14.1716 16.0515
602 1 4.7198 13.1056 16.0515
603 1 2.9668 15.3146 16.9432
604 1 5.2527 14.2486 16.9432
605 1 3.0438 12.4956 17.8350
606 1 4.1098 14.7816 17.8350
607 1 5.7857 15.3916 16.0515
608 1 8.0716 14.3256 16.0515
609 1 6.3187 16.5346 16.9432
610 1 8.6046 15.4686 16.9432
611 1 6.3957 13.7156 17.8350
612 1 7.4616 16.0015 17.8350
613 1 9.1376 16.6115 16.0515
614 1 11.4235 15.5456 16.0515
615 1 9.6706 17.7546 16.9432
616 1 11.9564 16.6886 16.9432
617 1 9.7476 14.9356 17.8350
618 1 10.8135 17.2215 17.8350
619 1 12.4895 17.8315 16.0515
620 1 14.7754 16.7656 16.0515
621 1 13.0225 18.9746 16.9432
622 1 15.3083 17.9086 16.9432
623 1 13.0995 16.1556 17.8350
624 1 14.1654 18.4415 17.8350
625 1 0.1479 15.2375 16.0515
626 1 -1.6050 17.4464 16.9432
627 1 0.6808 16.3805 16.9432
628 1 -1.5281 14.6275 17.8350
629 1 -0.4621 16.9135 17.8350
630 1 1.2138 17.5234 16.0515
631 1 3.4998 16.4575 16.0515
632 1 1.7469 18.6664 16.9432
633 1 4.0327 17.6005 16.9432
634 1 1.8238 15.8475 17.8350
635 1 2.8898 18.1334 17.8350
636 1 4.5657 18.7434 16.0515
637 1 6.8516 17.6775 16.0515
638 1 5.0988 19.8864 16.9432
639 1 7.3847 18.8205 16.9432
640 1 5.1757 17.0675 17.8350
641 1 6.2417 19.3534 17.8350
642 1 7.9176 19.9634 16.0515
643 1 10.2035 18.8975 16.0515
644 1 8.4506 21.1064 16.9432
645 1 10.7364 20.0405 16.9432
646 1 8.5276 18.2875 17.8350
647 1 9.5935 20.5734 17.8350
648 1 11.2695 21.1834 16.0515
649 1 13.5554 20.1175 16.0515
650 1 11.8025 22.3263 16.9432
651 1 14.0883 21.2605 16.9432
652 1 11.8795 19.5075 17.8350
653 1 12.9454 21.7934 17.8350
654 1 14.6214 22.4034 16.0515
655 1 15.1544 23.5463 16.9432
656 1 15.2314 20.7274 17.8350
657 1 -1.0721 18.5894 16.0515
658 1 -0.5392 19.7324 16.9432
659 1 -1.6821 20.2653 17.8350
660 1 -0.0062 20.8753 16.0515
661 1 2.2798 19.8094 16.0515
662 1 0.5269 22.0183 16.9432
663 1 2.8127 20.9524 16.9432
664 1 0.6038 19.1994 17.8350
665 1 1.6698 21.4853 17.8350
666 1 3.3457 22.0953 16.0515
667 1 5.6317 21.0294 16.0515
668 1 3.8788 23.2383 16.9432
669 1 6.1647 22.1724 16.9432
670 1 3.9557 20.4194 17.8350
671 1 5.0217 22.7053 17.8350
672 1 6.6976 23.3153 16.0515
673 1 8.9835 22.2494 16.0515
674 1 7.2307 24.4582 16.9432
675 1 9.5165 23.3924 16.9432
676 1 7.3076 21.6394 17.8350
677 1 8.3736 23.9253 17.8350
678 1 10.0495 24.5353 16.0515
679 1 12.3354 23.4693 16.0515
680 1 10.5825 25.6782 16.9432
681 1 12.8683 24.6123 16.9432
682 1 10.6595 22.8593 17.8350
683 1 11.7254 25.1453 17.8350
684 1 13.4014 25.7553 16.0515
685 1 15.6873 24.6893 16.0515
686 1 14.0114 24.0793 17.8350
687 1 15.0773 26.3653 17.8350
688 1 -1.7592 23.0843 16.9432
689 1 -1.2261 24.2272 16.0515
690 1 1.0598 23.1613 16.0515
691 1 -0.6931 25.3702 16.9432
692 1 1.5927 24.3043 16.9432
693 1 -0.6161 22.5513 17.8350
694 1 0.4498 24.8372 17.8350
695 1 2.1257 25.4472 16.0515
696 1 4.4117 24.3813 16.0515
697 1 2.6588 26.5901 16.9432
698 1 4.9447 25.5243 16.9432
699 1 2.7357 23.7713 17.8350
700 1 3.8017 26.0572 17.8350
701 1 7.7636 25.6012 16.0515
702 1 6.0876 24.9912 17.8350
703 1 9.4395 26.2112 17.8350
704 1 -0.1602 26.5131 16.0515
705 1 -1.8361 25.9032 17.8350
706 1 7.0827 9.2207 18.7268
707 1 8.7587 9.8307 20.5102
708 1 11.0446 8.7649 20.5102
709 1 10.4347 10.4407 18.7268
710 1 9.9016 9.2978 21.4020
711 1 11.5776 9.9078 19.6185
712 1 13.8635 8.8418 19.6185
713 1 12.7206 9.3749 18.7268
714 1 12.1106 11.0507 20.5102
715 1 14.3964 9.9848 20.5102
716 1 13.7864 11.6607 18.7268
717 1 13.2535 10.5178 21.4020
718 1 14.9294 11.1278 19.6185
719 1 15.4625 12.2707 20.5102
720 1 15.5394 9.4518 21.4020
721 1 -0.8411 10.1326 18.7268
722 1 -1.3740 8.9897 21.4020
723 1 0.3019 9.5997 19.6185
724 1 1.4449 9.0668 18.7268
725 1 0.8350 10.7426 20.5102
726 1 3.1208 9.6767 20.5102
727 1 2.5108 11.3526 18.7268
728 1 1.9779 10.2097 21.4020
729 1 3.6538 10.8197 19.6185
730 1 5.9397 9.7537 19.6185
731 1 4.7968 10.2868 18.7268
732 1 4.1868 11.9626 20.5102
733 1 6.4726 10.8967 20.5102
734 1 5.8627 12.5726 18.7268
735 1 4.2638 9.1437 21.4020
736 1 5.3297 11.4297 21.4020
737 1 7.0057 12.0397 19.6185
738 1 9.2916 10.9737 19.6185
739 1 8.1487 11.5068 18.7268
740 1 7.5387 13.1826 20.5102
741 1 9.8246 12.1167 20.5102
742 1 9.2147 13.7926 18.7268
743 1 7.6157 10.3637 21.4020
744 1 8.6816 12.6497 21.4020
745 1 10.3576 13.2597 19.6185
746 1 12.6435 12.1937 19.6185
747 1 11.5006 12.7267 18.7268
748 1 10.8906 14.4026 20.5102
749 1 13.1764 13.3367 20.5102
750 1 12.5665 15.0125 18.7268
751 1 10.9676 11.5837 21.4020
752 1 12.0335 13.8696 21.4020
753 1 13.7095 14.4796 19.6185
754 1 14.8525 13.9467 18.7268
755 1 14.2425 15.6226 20.5102
756 1 14.3194 12.8037 21.4020
757 1 15.3854 15.0896 21.4020
758 1 -1.9840 10.6656 19.6185
759 1 -1.4511 11.8086 20.5102
760 1 -2.0611 13.4846 18.7268
761 1 -0.9181 12.9516 19.6185
762 1 1.3679 11.8856 19.6185
763 1 0.2249 12.4187 18.7268
764 1 -0.3851 14.0946 20.5102
765 1 1.9008 13.0286 20.5102
766 1 1.2908 14.7046 18.7268
767 1 -0.3081 11.2756 21.4020
768 1 0.7579 13.5616 21.4020
769 1 2.4338 14.1716 19.6185
770 1 4.7198 13.1056 19.6185
771 1 3.5768 13.6387 18.7268
772 1 2.9668 15.3146 20.5102
773 1 5.2527 14.2486 20.5102
774 1 4.6427 15.9246 18.7268
775 1 3.0438 12.4956 21.4020
776 1 4.1098 14.7816 21.4020
777 1 5.7857 15.3916 19.6185
778 1 8.0716 14.3256 19.6185
779 1 6.9287 14.8586 18.7268
780 1 6.3187 16.5346 20.5102
781 1 8.6046 15.4686 20.5102
782 1 7.9946 17.1446 18.7268
783 1 6.3957 13.7156 21.4020
784 1 7.4616 16.0015 21.4020
785 1 9.1376 16.6115 19.6185
786 1 11.4235 15.5456 19.6185
787 1 10.2806 16.0786 18.7268
788 1 9.6706 17.7546 20.5102
789 1 11.9564 16.6886 20.5102
790 1 11.3464 18.3645 18.7268
791 1 9.7476 14.9356 21.4020
792 1 10.8135 17.2215 21.4020
793 1 12.4895 17.8315 19.6185
794 1 14.7754 16.7656 19.6185
795 1 13.6325 17.2986 18.7268
796 1 13.0225 18.9746 20.5102
797 1 15.3083 17.9086 20.5102
798 1 14.6983 19.5845 18.7268
799 1 13.0995 16.1556 21.4020
800 1 14.1654 18.4415 21.4020
801 1 0.1479 15.2375 19.6185
802 1 -0.9951 15.7706 18.7268
803 1 -1.6050 17.4464 20.5102
804 1 0.6808 16.3805 20.5102
805 1 0.0708 18.0564 18.7268
806 1 -1.5281 14.6275 21.4020
807 1 -0.4621 16.9135 21.4020
808 1 1.2138 17.5234 19.6185
809 1 3.4998 16.4575 19.6185
810 1 2.3568 16.9905 18.7268
811 1 1.7469 18.6664 20.5102
812 1 4.0327 17.6005 20.5102
813 1 3.4227 19.2763 18.7268
814 1 1.8238 15.8475 21.4020
815 1 2.8898 18.1334 21.4020
816 1 4.5657 18.7434 19.6185
817 1 6.8516 17.6775 19.6185
818 1 5.7087 18.2105 18.7268
819 1 5.0988 19.8864 20.5102
820 1 7.3847 18.8205 20.5102
821 1 6.7747 20.4964 18.7268
822 1 5.1757 17.0675 21.4020
823 1 6.2417 19.3534 21.4020
824 1 7.9176 19.9634 19.6185
825 1 10.2035 18.8975 19.6185
826 1 9.0606 19.4305 18.7268
827 1 8.4506 21.1064 20.5102
828 1 10.7364 20.0405 20.5102
829 1 10.1265 21.7163 18.7268
830 1 8.5276 18.2875 21.4020
831 1 9.5935 20.5734 21.4020
832 1 11.2695 21.1834 19.6185
833 1 13.5554 20.1175 19.6185
834 1 12.4125 20.6505 18.7268
835 1 11.8025 22.3263 20.5102
836 1 14.0883 21.2605 20.5102
837 1 13.4784 22.9363 18.7268
838 1 11.8795 19.5075 21.4020
839 1 12.9454 21.7934 21.4020
840 1 14.6214 22.4034 19.6185
841 1 15.7644 21.8705 18.7268
842 1 15.1544 23.5463 20.5102
843 1 15.2314 20.7274 21.4020
844 1 -1.0721 18.5894 19.6185
845 1 -0.5392 19.7324 20.5102
846 1 -1.1492 21.4082 18.7268
847 1 -1.6821 20.2653 21.4020
848 1 -0.0062 20.8753 19.6185
849 1 2.2798 19.8094 19.6185
850 1 1.1368 20.3424 18.7268
851 1 0.5269 22.0183 20.5102
852 1 2.8127 20.9524 20.5102
853 1 2.2027 22.6282 18.7268
854 1 0.6038 19.1994 21.4020
855 1 1.6698 21.4853 21.4020
856 1 3.3457 22.0953 19.6185
857 1 5.6317 21.0294 19.6185
858 1 4.4887 21.5624 18.7268
859 1 3.8788 23.2383 20.5102
860 1 6.1647 22.1724 20.5102
861 1 5.5547 23.8482 18.7268
862 1 3.9557 20.4194 21.4020
863 1 5.0217 22.7053 21.4020
864 1 6.6976 23.3153 19.6185
865 1 8.9835 22.2494 19.6185
866 1 7.8406 22.7824 18.7268
867 1 7.2307 24.4582 20.5102
868 1 9.5165 23.3924 20.5102
869 1 8.9065 25.0682 18.7268
870 1 7.3076 21.6394 21.4020
871 1 8.3736 23.9253 21.4020
872 1 10.0495 24.5353 19.6185
873 1 12.3354 23.4693 19.6185
874 1 11.1925 24.0024 18.7268
875 1 10.5825 25.6782 20.5102
876 1 12.8683 24.6123 20.5102
877 1 12.2584 26.2882 18.7268
878 1 10.6595 22.8593 21.4020
879 1 11.7254 25.1453 21.4020
880 1 13.4014 25.7553 19.6185
881 1 15.6873 24.6893 19.6185
882 1 14.5444 25.2224 18.7268
883 1 14.0114 24.0793 21.4020
884 1 15.0773 26.3653 21.4020
885 1 -1.7592 23.0843 20.5102
886 1 -1.2261 24.2272 19.6185
887 1 1.0598 23.1613 19.6185
888 1 -0.0831 23.6943 18.7268
889 1 -0.6931 25.3702 20.5102
890 1 1.5927 24.3043 20.5102
891 1 0.9827 25.9801 18.7268
892 1 -0.6161 22.5513 21.4020
893 1 0.4498 24.8372 21.4020
894 1 2.1257 25.4472 19.6185
895 1 4.4117 24.3813 19.6185
896 1 3.2687 24.9143 18.7268
897 1 2.6588 26.5901 20.5102
898 1 4.9447 25.5243 20.5102
899 1 2.7357 23.7713 21.4020
900 1 3.8017 26.0572 21.4020
901 1 7.7636 25.6012 19.6185
902 1 6.6206 26.1343 18.7268
903 1 6.0876 24.9912 21.4020
904 1 9.4395 26.2112 21.4020
905 1 -0.1602 26.5131 19.6185
906 1 -1.8361 25.9032 21.4020
907 1 7.0827 9.2207 22.2938
908 1 10.4347 10.4407 22.2938
909 1 12.7206 9.3749 22.2938
910 1 13.7864 11.6607 22.2938
911 1 -0.8411 10.1326 22.2938
912 1 1.4449 9.0668 22.2938
913 1 2.5108 11.3526 22.2938
914 1 4.7968 10.2868 22.2938
915 1 5.8627 12.5726 22.2938
916 1 8.1487 11.5068 22.2938
917 1 9.2147 13.7926 22.2938
918 1 11.5006 12.7267 22.2938
919 1 12.5665 15.0125 22.2938
920 1 14.8525 13.9467 22.2938
921 1 -2.0611 13.4846 22.2938
922 1 0.2249 12.4187 22.2938
923 1 1.2908 14.7046 22.2938
924 1 3.5768 13.6387 22.2938
925 1 4.6427 15.9246 22.2938
926 1 6.9287 14.8586 22.2938
927 1 7.9946 17.1446 22.2938
928 1 10.2806 16.0786 22.2938
929 1 11.3464 18.3645 22.2938
930 1 13.6325 17.2986 22.2938
931 1 14.6983 19.5845 22.2938
932 1 -0.9951 15.7706 22.2938
933 1 0.0708 18.0564 22.2938
934 1 2.3568 16.9905 22.2938
935 1 3.4227 19.2763 22.2938
936 1 5.7087 18.2105 22.2938
937 1 6.7747 20.4964 22.2938
938 1 9.0606 19.4305 22.2938
939 1 10.1265 21.7163 22.2938
940 1 12.4125 20.6505 22.2938
941 1 13.4784 22.9363 22.2938
942 1 15.7644 21.8705 22.2938
943 1 -1.1492 21.4082 22.2938
944 1 1.1368 20.3424 22.2938
945 1 2.2027 22.6282 22.2938
946 1 4.4887 21.5624 22.2938
947 1 5.5547 23.8482 22.2938
948 1 7.8406 22.7824 22.2938
949 1 8.9065 25.0682 22.2938
950 1 11.1925 24.0024 22.2938
951 1 12.2584 26.2882 22.2938
952 1 14.5444 25.2224 22.2938
953 1 -0.0831 23.6943 22.2938
954 1 0.9827 25.9801 22.2938
955 1 3.2687 24.9143 22.2938
956 1 6.6206 26.1343 22.2938
