LAMMPS data file from restart file: timestep = 1, procs = 1

1057 atoms

3 atom types

0.0000 21.5446 xlo xhi
0.0000 28.7820 ylo yhi
-50 71.34 zlo zhi

Masses

1 12.01
2 2
3 3

Atoms

1 1 11.0507 0.1539 1.7836
2 1 12.7267 0.7639 0.0000
3 1 13.8696 0.2310 0.8918
4 1 14.4027 1.3739 1.7836
5 1 16.0786 1.9839 0.0000
6 1 18.3644 0.9180 0.0000
7 1 17.2215 1.4510 0.8918
8 1 16.6886 0.3081 1.7836
9 1 17.7544 2.5939 1.7836
10 1 19.4305 3.2039 0.0000
11 1 19.5074 0.3850 0.8918
12 1 20.5734 2.6709 0.8918
13 1 20.0404 1.5280 1.7836
14 1 21.1063 3.8139 1.7836
15 1 7.0888 0.6099 0.0000
16 1 5.9459 1.1429 0.8918
17 1 5.4129 0.0000 1.7836
18 1 10.4406 1.8299 0.0000
19 1 8.2318 0.0769 0.8918
20 1 9.2977 2.3629 0.8918
21 1 8.7648 1.2200 1.7836
22 1 13.7926 3.0499 0.0000
23 1 11.5837 1.2969 0.8918
24 1 12.6496 3.5829 0.8918
25 1 12.1167 2.4400 1.7836
26 1 17.1444 4.2699 0.0000
27 1 14.9356 2.5169 0.8918
28 1 16.0015 4.8028 0.8918
29 1 15.4686 3.6599 1.7836
30 1 20.4963 5.4899 0.0000
31 1 18.2874 3.7369 0.8918
32 1 19.3534 6.0228 0.8918
33 1 18.8205 4.8799 1.7836
34 1 1.4511 0.4558 0.0000
35 1 3.1269 1.0658 1.7836
36 1 2.5169 2.7418 0.0000
37 1 0.3080 0.9889 0.8918
38 1 1.3740 3.2748 0.8918
39 1 0.8410 2.1319 1.7836
40 1 4.8030 1.6758 0.0000
41 1 6.4788 2.2858 1.7836
42 1 5.8688 3.9618 0.0000
43 1 3.6599 2.2088 0.8918
44 1 4.7259 4.4948 0.8918
45 1 4.1929 3.3519 1.7836
46 1 8.1548 2.8958 0.0000
47 1 9.8307 3.5058 1.7836
48 1 9.2207 5.1818 0.0000
49 1 7.0118 3.4288 0.8918
50 1 8.0778 5.7148 0.8918
51 1 7.5448 4.5719 1.7836
52 1 11.5067 4.1158 0.0000
53 1 13.1827 4.7258 1.7836
54 1 12.5726 6.4018 0.0000
55 1 10.3637 4.6488 0.8918
56 1 11.4296 6.9347 0.8918
57 1 10.8967 5.7918 1.7836
58 1 14.8586 5.3358 0.0000
59 1 16.5345 5.9457 1.7836
60 1 15.9244 7.6218 0.0000
61 1 13.7156 5.8688 0.8918
62 1 14.7815 8.1547 0.8918
63 1 14.2486 7.0118 1.7836
64 1 18.2105 6.5558 0.0000
65 1 19.8863 7.1657 1.7836
66 1 19.2763 8.8418 0.0000
67 1 17.0675 7.0888 0.8918
68 1 18.1334 9.3747 0.8918
69 1 17.6005 8.2318 1.7836
70 1 20.4193 8.3088 0.8918
71 1 20.9523 9.4518 1.7836
72 1 0.2311 3.8078 0.0000
73 1 1.9069 4.4178 1.7836
74 1 1.2969 6.0937 0.0000
75 1 0.1540 6.6267 0.8918
76 1 3.5829 5.0278 0.0000
77 1 5.2588 5.6378 1.7836
78 1 4.6488 7.3137 0.0000
79 1 2.4399 5.5607 0.8918
80 1 3.5059 7.8467 0.8918
81 1 2.9729 6.7038 1.7836
82 1 6.9348 6.2478 0.0000
83 1 8.6107 6.8578 1.7836
84 1 8.0007 8.5337 0.0000
85 1 5.7918 6.7807 0.8918
86 1 6.8578 9.0666 0.8918
87 1 6.3248 7.9237 1.7836
88 1 10.2867 7.4678 0.0000
89 1 11.9626 8.0778 1.7836
90 1 11.3527 9.7537 0.0000
91 1 9.1437 8.0007 0.8918
92 1 10.2097 10.2866 0.8918
93 1 9.6767 9.1437 1.7836
94 1 13.6386 8.6878 0.0000
95 1 15.3144 9.2977 1.7836
96 1 14.7044 10.9737 0.0000
97 1 12.4956 9.2207 0.8918
98 1 13.5615 11.5066 0.8918
99 1 13.0286 10.3637 1.7836
100 1 16.9905 9.9078 0.0000
101 1 18.6663 10.5177 1.7836
102 1 18.0563 12.1937 0.0000
103 1 15.8475 10.4407 0.8918
104 1 16.9134 12.7266 0.8918
105 1 16.3805 11.5837 1.7836
106 1 20.3424 11.1277 0.0000
107 1 19.1994 11.6606 0.8918
108 1 20.2653 13.9466 0.8918
109 1 19.7324 12.8037 1.7836
110 1 0.6870 7.7696 1.7836
111 1 0.0769 9.4456 0.0000
112 1 2.3630 8.3796 0.0000
113 1 4.0388 8.9896 1.7836
114 1 3.4288 10.6656 0.0000
115 1 1.2200 8.9126 0.8918
116 1 1.7530 10.0556 1.7836
117 1 5.7149 9.5996 0.0000
118 1 7.3907 10.2095 1.7836
119 1 6.7807 11.8856 0.0000
120 1 4.5718 10.1326 0.8918
121 1 5.1048 11.2756 1.7836
122 1 9.0668 10.8196 0.0000
123 1 10.7427 11.4296 1.7836
124 1 10.1327 13.1056 0.0000
125 1 7.9237 11.3526 0.8918
126 1 8.4567 12.4956 1.7836
127 1 12.4186 12.0396 0.0000
128 1 14.0945 12.6495 1.7836
129 1 13.4845 14.3256 0.0000
130 1 11.2756 12.5726 0.8918
131 1 11.8086 13.7156 1.7836
132 1 15.7705 13.2595 0.0000
133 1 17.4464 13.8695 1.7836
134 1 16.8363 15.5455 0.0000
135 1 14.6275 13.7925 0.8918
136 1 15.1605 14.9356 1.7836
137 1 19.1224 14.4795 0.0000
138 1 20.7983 15.0895 1.7836
139 1 20.1882 16.7655 0.0000
140 1 17.9794 15.0125 0.8918
141 1 18.5124 16.1556 1.7836
142 1 21.3313 16.2325 0.8918
143 1 1.1430 11.7315 0.0000
144 1 2.2859 11.1985 0.8918
145 1 2.8188 12.3414 1.7836
146 1 2.2088 14.0175 0.0000
147 1 0.0000 12.2645 0.8918
148 1 0.5330 13.4075 1.7836
149 1 4.4949 12.9515 0.0000
150 1 5.6378 12.4185 0.8918
151 1 6.1707 13.5614 1.7836
152 1 5.5607 15.2375 0.0000
153 1 3.3519 13.4845 0.8918
154 1 3.8849 14.6275 1.7836
155 1 7.8468 14.1715 0.0000
156 1 8.9897 13.6385 0.8918
157 1 9.5227 14.7814 1.7836
158 1 8.9127 16.4575 0.0000
159 1 6.7037 14.7045 0.8918
160 1 7.2367 15.8475 1.7836
161 1 11.1987 15.3914 0.0000
162 1 12.3416 14.8585 0.8918
163 1 12.8745 16.0014 1.7836
164 1 12.2645 17.6774 0.0000
165 1 10.0556 15.9244 0.8918
166 1 10.5886 17.0675 1.7836
167 1 14.5505 16.6114 0.0000
168 1 15.6934 16.0785 0.8918
169 1 16.2264 17.2214 1.7836
170 1 15.6164 18.8974 0.0000
171 1 13.4075 17.1444 0.8918
172 1 13.9405 18.2875 1.7836
173 1 17.9024 17.8314 0.0000
174 1 19.0453 17.2985 0.8918
175 1 19.5783 18.4414 1.7836
176 1 18.9682 20.1174 0.0000
177 1 16.7594 18.3644 0.8918
178 1 17.2924 19.5074 1.7836
179 1 21.2543 19.0514 0.0000
180 1 20.1113 19.5844 0.8918
181 1 20.6443 20.7274 1.7836
182 1 1.0659 14.5504 0.8918
183 1 1.5989 15.6933 1.7836
184 1 0.9888 17.3694 0.0000
185 1 3.2749 16.3034 0.0000
186 1 4.4178 15.7704 0.8918
187 1 4.9507 16.9133 1.7836
188 1 4.3407 18.5893 0.0000
189 1 2.1319 16.8364 0.8918
190 1 2.6649 17.9794 1.7836
191 1 6.6268 17.5233 0.0000
192 1 7.7697 16.9904 0.8918
193 1 8.3027 18.1333 1.7836
194 1 7.6927 19.8094 0.0000
195 1 5.4837 18.0563 0.8918
196 1 6.0168 19.1994 1.7836
197 1 9.9787 18.7433 0.0000
198 1 11.1216 18.2104 0.8918
199 1 11.6545 19.3533 1.7836
200 1 11.0445 21.0293 0.0000
201 1 8.8356 19.2763 0.8918
202 1 9.3686 20.4194 1.7836
203 1 13.3305 19.9633 0.0000
204 1 14.4735 19.4304 0.8918
205 1 15.0064 20.5733 1.7836
206 1 14.3964 22.2493 0.0000
207 1 12.1875 20.4963 0.8918
208 1 12.7205 21.6393 1.7836
209 1 16.6824 21.1833 0.0000
210 1 17.8253 20.6504 0.8918
211 1 18.3583 21.7933 1.7836
212 1 17.7483 23.4693 0.0000
213 1 15.5394 21.7163 0.8918
214 1 16.0724 22.8593 1.7836
215 1 20.0343 22.4033 0.0000
216 1 21.1772 21.8703 0.8918
217 1 21.1001 24.6893 0.0000
218 1 18.8913 22.9363 0.8918
219 1 19.4243 24.0793 1.7836
220 1 0.3789 19.0452 1.7836
221 1 2.0549 19.6552 0.0000
222 1 3.1978 19.1223 0.8918
223 1 3.7308 20.2652 1.7836
224 1 0.9119 20.1882 0.8918
225 1 5.4068 20.8752 0.0000
226 1 6.5497 20.3423 0.8918
227 1 7.0827 21.4852 1.7836
228 1 4.2638 21.4082 0.8918
229 1 8.7587 22.0952 0.0000
230 1 9.9016 21.5623 0.8918
231 1 10.4345 22.7052 1.7836
232 1 7.6156 22.6282 0.8918
233 1 12.1106 23.3152 0.0000
234 1 13.2535 22.7822 0.8918
235 1 13.7864 23.9252 1.7836
236 1 10.9675 23.8482 0.8918
237 1 15.4624 24.5352 0.0000
238 1 16.6053 24.0022 0.8918
239 1 17.1383 25.1451 1.7836
240 1 14.3194 25.0682 0.8918
241 1 18.8143 25.7552 0.0000
242 1 19.9572 25.2222 0.8918
243 1 20.4902 26.3651 1.7836
244 1 17.6713 26.2882 0.8918
245 1 0.8349 23.0071 0.0000
246 1 3.1207 21.9412 0.0000
247 1 1.9778 22.4742 0.8918
248 1 1.4449 21.3313 1.7836
249 1 2.5108 23.6171 1.7836
250 1 4.1868 24.2271 0.0000
251 1 6.4727 23.1613 0.0000
252 1 5.3297 23.6942 0.8918
253 1 4.7968 22.5513 1.7836
254 1 5.8628 24.8371 1.7836
255 1 3.0438 24.7601 0.8918
256 1 7.5387 25.4471 0.0000
257 1 9.8245 24.3812 0.0000
258 1 8.6816 24.9141 0.8918
259 1 8.1487 23.7712 1.7836
260 1 9.2145 26.0571 1.7836
261 1 6.3957 25.9801 0.8918
262 1 10.8906 26.6671 0.0000
263 1 13.1764 25.6012 0.0000
264 1 12.0335 26.1341 0.8918
265 1 11.5005 24.9912 1.7836
266 1 12.5664 27.2770 1.7836
267 1 9.7475 27.2001 0.8918
268 1 14.2425 27.8871 0.0000
269 1 16.5283 26.8212 0.0000
270 1 15.3854 27.3541 0.8918
271 1 14.8524 26.2112 1.7836
272 1 15.9183 28.4970 1.7836
273 1 13.0994 28.4201 0.8918
274 1 19.8802 28.0412 0.0000
275 1 18.2043 27.4312 1.7836
276 1 1.9007 25.2931 0.0000
277 1 0.7578 25.8261 0.8918
278 1 0.2249 24.6832 1.7836
279 1 1.2908 26.9690 1.7836
280 1 2.9668 27.5790 0.0000
281 1 5.2527 26.5131 0.0000
282 1 4.1097 27.0460 0.8918
283 1 3.5768 25.9031 1.7836
284 1 4.6428 28.1890 1.7836
285 1 1.8238 28.1120 0.8918
286 1 8.6045 27.7331 0.0000
287 1 7.4616 28.2660 0.8918
288 1 6.9287 27.1231 1.7836
289 1 10.2805 28.3431 1.7836
290 1 11.0507 0.1539 5.3506
291 1 12.7267 0.7639 3.5670
292 1 13.8696 0.2310 4.4588
293 1 14.4027 1.3739 5.3506
294 1 15.5456 0.8410 2.6753
295 1 16.0786 1.9839 3.5670
296 1 18.3644 0.9180 3.5670
297 1 17.2215 1.4510 4.4588
298 1 16.6886 0.3081 5.3506
299 1 17.7544 2.5939 5.3506
300 1 18.8974 2.0610 2.6753
301 1 21.1834 0.9950 2.6753
302 1 19.4305 3.2039 3.5670
303 1 19.5074 0.3850 4.4588
304 1 20.5734 2.6709 4.4588
305 1 20.0404 1.5280 5.3506
306 1 21.1063 3.8139 5.3506
307 1 4.2699 0.5329 2.6753
308 1 7.0888 0.6099 3.5670
309 1 5.9459 1.1429 4.4588
310 1 5.4129 0.0000 5.3506
311 1 7.6218 1.7529 2.6753
312 1 9.9077 0.6869 2.6753
313 1 10.4406 1.8299 3.5670
314 1 8.2318 0.0769 4.4588
315 1 9.2977 2.3629 4.4588
316 1 8.7648 1.2200 5.3506
317 1 10.9737 2.9729 2.6753
318 1 13.2596 1.9069 2.6753
319 1 13.7926 3.0499 3.5670
320 1 11.5837 1.2969 4.4588
321 1 12.6496 3.5829 4.4588
322 1 12.1167 2.4400 5.3506
323 1 14.3256 4.1929 2.6753
324 1 16.6115 3.1269 2.6753
325 1 17.1444 4.2699 3.5670
326 1 14.9356 2.5169 4.4588
327 1 16.0015 4.8028 4.4588
328 1 15.4686 3.6599 5.3506
329 1 17.6775 5.4128 2.6753
330 1 19.9634 4.3469 2.6753
331 1 20.4963 5.4899 3.5670
332 1 18.2874 3.7369 4.4588
333 1 19.3534 6.0228 4.4588
334 1 18.8205 4.8799 5.3506
335 1 21.0293 6.6328 2.6753
336 1 1.4511 0.4558 3.5670
337 1 3.1269 1.0658 5.3506
338 1 1.9840 1.5988 2.6753
339 1 2.5169 2.7418 3.5670
340 1 0.3080 0.9889 4.4588
341 1 1.3740 3.2748 4.4588
342 1 0.8410 2.1319 5.3506
343 1 4.8030 1.6758 3.5670
344 1 6.4788 2.2858 5.3506
345 1 3.0499 3.8848 2.6753
346 1 5.3359 2.8188 2.6753
347 1 5.8688 3.9618 3.5670
348 1 3.6599 2.2088 4.4588
349 1 4.7259 4.4948 4.4588
350 1 4.1929 3.3519 5.3506
351 1 8.1548 2.8958 3.5670
352 1 9.8307 3.5058 5.3506
353 1 6.4018 5.1048 2.6753
354 1 8.6878 4.0388 2.6753
355 1 9.2207 5.1818 3.5670
356 1 7.0118 3.4288 4.4588
357 1 8.0778 5.7148 4.4588
358 1 7.5448 4.5719 5.3506
359 1 11.5067 4.1158 3.5670
360 1 13.1827 4.7258 5.3506
361 1 9.7537 6.3248 2.6753
362 1 12.0396 5.2588 2.6753
363 1 12.5726 6.4018 3.5670
364 1 10.3637 4.6488 4.4588
365 1 11.4296 6.9347 4.4588
366 1 10.8967 5.7918 5.3506
367 1 14.8586 5.3358 3.5670
368 1 16.5345 5.9457 5.3506
369 1 13.1056 7.5447 2.6753
370 1 15.3915 6.4788 2.6753
371 1 15.9244 7.6218 3.5670
372 1 13.7156 5.8688 4.4588
373 1 14.7815 8.1547 4.4588
374 1 14.2486 7.0118 5.3506
375 1 18.2105 6.5558 3.5670
376 1 19.8863 7.1657 5.3506
377 1 16.4575 8.7647 2.6753
378 1 18.7434 7.6988 2.6753
379 1 19.2763 8.8418 3.5670
380 1 17.0675 7.0888 4.4588
381 1 18.1334 9.3747 4.4588
382 1 17.6005 8.2318 5.3506
383 1 19.8094 9.9847 2.6753
384 1 20.4193 8.3088 4.4588
385 1 20.9523 9.4518 5.3506
386 1 0.2311 3.8078 3.5670
387 1 1.9069 4.4178 5.3506
388 1 0.7640 4.9507 2.6753
389 1 1.2969 6.0937 3.5670
390 1 0.1540 6.6267 4.4588
391 1 3.5829 5.0278 3.5670
392 1 5.2588 5.6378 5.3506
393 1 1.8299 7.2367 2.6753
394 1 4.1159 6.1707 2.6753
395 1 4.6488 7.3137 3.5670
396 1 2.4399 5.5607 4.4588
397 1 3.5059 7.8467 4.4588
398 1 2.9729 6.7038 5.3506
399 1 6.9348 6.2478 3.5670
400 1 8.6107 6.8578 5.3506
401 1 5.1818 8.4566 2.6753
402 1 7.4678 7.3907 2.6753
403 1 8.0007 8.5337 3.5670
404 1 5.7918 6.7807 4.4588
405 1 6.8578 9.0666 4.4588
406 1 6.3248 7.9237 5.3506
407 1 10.2867 7.4678 3.5670
408 1 11.9626 8.0778 5.3506
409 1 8.5337 9.6766 2.6753
410 1 10.8196 8.6107 2.6753
411 1 11.3527 9.7537 3.5670
412 1 9.1437 8.0007 4.4588
413 1 10.2097 10.2866 4.4588
414 1 9.6767 9.1437 5.3506
415 1 13.6386 8.6878 3.5670
416 1 15.3144 9.2977 5.3506
417 1 11.8856 10.8966 2.6753
418 1 14.1715 9.8307 2.6753
419 1 14.7044 10.9737 3.5670
420 1 12.4956 9.2207 4.4588
421 1 13.5615 11.5066 4.4588
422 1 13.0286 10.3637 5.3506
423 1 16.9905 9.9078 3.5670
424 1 18.6663 10.5177 5.3506
425 1 15.2375 12.1166 2.6753
426 1 17.5234 11.0507 2.6753
427 1 18.0563 12.1937 3.5670
428 1 15.8475 10.4407 4.4588
429 1 16.9134 12.7266 4.4588
430 1 16.3805 11.5837 5.3506
431 1 20.3424 11.1277 3.5670
432 1 18.5894 13.3366 2.6753
433 1 20.8753 12.2706 2.6753
434 1 19.1994 11.6606 4.4588
435 1 20.2653 13.9466 4.4588
436 1 19.7324 12.8037 5.3506
437 1 0.6870 7.7696 5.3506
438 1 0.0769 9.4456 3.5670
439 1 2.3630 8.3796 3.5670
440 1 4.0388 8.9896 5.3506
441 1 2.8959 9.5226 2.6753
442 1 3.4288 10.6656 3.5670
443 1 1.2200 8.9126 4.4588
444 1 1.7530 10.0556 5.3506
445 1 5.7149 9.5996 3.5670
446 1 7.3907 10.2095 5.3506
447 1 6.2478 10.7426 2.6753
448 1 6.7807 11.8856 3.5670
449 1 4.5718 10.1326 4.4588
450 1 5.1048 11.2756 5.3506
451 1 9.0668 10.8196 3.5670
452 1 10.7427 11.4296 5.3506
453 1 9.5997 11.9626 2.6753
454 1 10.1327 13.1056 3.5670
455 1 7.9237 11.3526 4.4588
456 1 8.4567 12.4956 5.3506
457 1 12.4186 12.0396 3.5670
458 1 14.0945 12.6495 5.3506
459 1 12.9515 13.1826 2.6753
460 1 13.4845 14.3256 3.5670
461 1 11.2756 12.5726 4.4588
462 1 11.8086 13.7156 5.3506
463 1 15.7705 13.2595 3.5670
464 1 17.4464 13.8695 5.3506
465 1 16.3034 14.4025 2.6753
466 1 16.8363 15.5455 3.5670
467 1 14.6275 13.7925 4.4588
468 1 15.1605 14.9356 5.3506
469 1 19.1224 14.4795 3.5670
470 1 20.7983 15.0895 5.3506
471 1 19.6553 15.6225 2.6753
472 1 20.1882 16.7655 3.5670
473 1 17.9794 15.0125 4.4588
474 1 18.5124 16.1556 5.3506
475 1 21.3313 16.2325 4.4588
476 1 0.6100 10.5885 2.6753
477 1 1.1430 11.7315 3.5670
478 1 2.2859 11.1985 4.4588
479 1 2.8188 12.3414 5.3506
480 1 1.6759 12.8745 2.6753
481 1 2.2088 14.0175 3.5670
482 1 0.0000 12.2645 4.4588
483 1 0.5330 13.4075 5.3506
484 1 3.9618 11.8085 2.6753
485 1 4.4949 12.9515 3.5670
486 1 5.6378 12.4185 4.4588
487 1 6.1707 13.5614 5.3506
488 1 5.0278 14.0945 2.6753
489 1 5.5607 15.2375 3.5670
490 1 3.3519 13.4845 4.4588
491 1 3.8849 14.6275 5.3506
492 1 7.3137 13.0285 2.6753
493 1 7.8468 14.1715 3.5670
494 1 8.9897 13.6385 4.4588
495 1 9.5227 14.7814 5.3506
496 1 8.3797 15.3145 2.6753
497 1 8.9127 16.4575 3.5670
498 1 6.7037 14.7045 4.4588
499 1 7.2367 15.8475 5.3506
500 1 10.6656 14.2485 2.6753
501 1 11.1987 15.3914 3.5670
502 1 12.3416 14.8585 4.4588
503 1 12.8745 16.0014 5.3506
504 1 11.7316 16.5344 2.6753
505 1 12.2645 17.6774 3.5670
506 1 10.0556 15.9244 4.4588
507 1 10.5886 17.0675 5.3506
508 1 14.0175 15.4685 2.6753
509 1 14.5505 16.6114 3.5670
510 1 15.6934 16.0785 4.4588
511 1 16.2264 17.2214 5.3506
512 1 15.0834 17.7544 2.6753
513 1 15.6164 18.8974 3.5670
514 1 13.4075 17.1444 4.4588
515 1 13.9405 18.2875 5.3506
516 1 17.3694 16.6885 2.6753
517 1 17.9024 17.8314 3.5670
518 1 19.0453 17.2985 4.4588
519 1 19.5783 18.4414 5.3506
520 1 18.4353 18.9744 2.6753
521 1 18.9682 20.1174 3.5670
522 1 16.7594 18.3644 4.4588
523 1 17.2924 19.5074 5.3506
524 1 20.7213 17.9085 2.6753
525 1 21.2543 19.0514 3.5670
526 1 20.1113 19.5844 4.4588
527 1 20.6443 20.7274 5.3506
528 1 1.0659 14.5504 4.4588
529 1 1.5989 15.6933 5.3506
530 1 0.4559 16.2264 2.6753
531 1 0.9888 17.3694 3.5670
532 1 2.7419 15.1604 2.6753
533 1 3.2749 16.3034 3.5670
534 1 4.4178 15.7704 4.4588
535 1 4.9507 16.9133 5.3506
536 1 3.8078 17.4463 2.6753
537 1 4.3407 18.5893 3.5670
538 1 2.1319 16.8364 4.4588
539 1 2.6649 17.9794 5.3506
540 1 6.0937 16.3804 2.6753
541 1 6.6268 17.5233 3.5670
542 1 7.7697 16.9904 4.4588
543 1 8.3027 18.1333 5.3506
544 1 7.1597 18.6663 2.6753
545 1 7.6927 19.8094 3.5670
546 1 5.4837 18.0563 4.4588
547 1 6.0168 19.1994 5.3506
548 1 9.4456 17.6004 2.6753
549 1 9.9787 18.7433 3.5670
550 1 11.1216 18.2104 4.4588
551 1 11.6545 19.3533 5.3506
552 1 10.5116 19.8863 2.6753
553 1 11.0445 21.0293 3.5670
554 1 8.8356 19.2763 4.4588
555 1 9.3686 20.4194 5.3506
556 1 12.7975 18.8204 2.6753
557 1 13.3305 19.9633 3.5670
558 1 14.4735 19.4304 4.4588
559 1 15.0064 20.5733 5.3506
560 1 13.8635 21.1063 2.6753
561 1 14.3964 22.2493 3.5670
562 1 12.1875 20.4963 4.4588
563 1 12.7205 21.6393 5.3506
564 1 16.1494 20.0404 2.6753
565 1 16.6824 21.1833 3.5670
566 1 17.8253 20.6504 4.4588
567 1 18.3583 21.7933 5.3506
568 1 17.2153 22.3263 2.6753
569 1 17.7483 23.4693 3.5670
570 1 15.5394 21.7163 4.4588
571 1 16.0724 22.8593 5.3506
572 1 19.5013 21.2603 2.6753
573 1 20.0343 22.4033 3.5670
574 1 21.1772 21.8703 4.4588
575 1 20.5672 23.5463 2.6753
576 1 21.1001 24.6893 3.5670
577 1 18.8913 22.9363 4.4588
578 1 19.4243 24.0793 5.3506
579 1 0.3789 19.0452 5.3506
580 1 1.5219 18.5123 2.6753
581 1 2.0549 19.6552 3.5670
582 1 3.1978 19.1223 4.4588
583 1 3.7308 20.2652 5.3506
584 1 2.5878 20.7982 2.6753
585 1 0.9119 20.1882 4.4588
586 1 4.8738 19.7323 2.6753
587 1 5.4068 20.8752 3.5670
588 1 6.5497 20.3423 4.4588
589 1 7.0827 21.4852 5.3506
590 1 5.9397 22.0182 2.6753
591 1 4.2638 21.4082 4.4588
592 1 8.2256 20.9523 2.6753
593 1 8.7587 22.0952 3.5670
594 1 9.9016 21.5623 4.4588
595 1 10.4345 22.7052 5.3506
596 1 9.2916 23.2382 2.6753
597 1 7.6156 22.6282 4.4588
598 1 11.5775 22.1723 2.6753
599 1 12.1106 23.3152 3.5670
600 1 13.2535 22.7822 4.4588
601 1 13.7864 23.9252 5.3506
602 1 12.6435 24.4582 2.6753
603 1 10.9675 23.8482 4.4588
604 1 14.9294 23.3922 2.6753
605 1 15.4624 24.5352 3.5670
606 1 16.6053 24.0022 4.4588
607 1 17.1383 25.1451 5.3506
608 1 15.9954 25.6782 2.6753
609 1 14.3194 25.0682 4.4588
610 1 18.2813 24.6122 2.6753
611 1 18.8143 25.7552 3.5670
612 1 19.9572 25.2222 4.4588
613 1 20.4902 26.3651 5.3506
614 1 19.3472 26.8982 2.6753
615 1 17.6713 26.2882 4.4588
616 1 0.3019 21.8642 2.6753
617 1 0.8349 23.0071 3.5670
618 1 3.1207 21.9412 3.5670
619 1 1.9778 22.4742 4.4588
620 1 1.4449 21.3313 5.3506
621 1 2.5108 23.6171 5.3506
622 1 1.3678 24.1501 2.6753
623 1 3.6538 23.0842 2.6753
624 1 4.1868 24.2271 3.5670
625 1 6.4727 23.1613 3.5670
626 1 5.3297 23.6942 4.4588
627 1 4.7968 22.5513 5.3506
628 1 5.8628 24.8371 5.3506
629 1 4.7197 25.3701 2.6753
630 1 3.0438 24.7601 4.4588
631 1 7.0057 24.3042 2.6753
632 1 7.5387 25.4471 3.5670
633 1 9.8245 24.3812 3.5670
634 1 8.6816 24.9141 4.4588
635 1 8.1487 23.7712 5.3506
636 1 9.2145 26.0571 5.3506
637 1 8.0716 26.5901 2.6753
638 1 6.3957 25.9801 4.4588
639 1 10.3575 25.5241 2.6753
640 1 10.8906 26.6671 3.5670
641 1 13.1764 25.6012 3.5670
642 1 12.0335 26.1341 4.4588
643 1 11.5005 24.9912 5.3506
644 1 12.5664 27.2770 5.3506
645 1 11.4235 27.8101 2.6753
646 1 9.7475 27.2001 4.4588
647 1 13.7094 26.7441 2.6753
648 1 14.2425 27.8871 3.5670
649 1 16.5283 26.8212 3.5670
650 1 15.3854 27.3541 4.4588
651 1 14.8524 26.2112 5.3506
652 1 15.9183 28.4970 5.3506
653 1 13.0994 28.4201 4.4588
654 1 17.0613 27.9641 2.6753
655 1 19.8802 28.0412 3.5670
656 1 18.2043 27.4312 5.3506
657 1 1.9007 25.2931 3.5670
658 1 0.7578 25.8261 4.4588
659 1 0.2249 24.6832 5.3506
660 1 1.2908 26.9690 5.3506
661 1 0.1479 27.5020 2.6753
662 1 2.4338 26.4361 2.6753
663 1 2.9668 27.5790 3.5670
664 1 5.2527 26.5131 3.5670
665 1 4.1097 27.0460 4.4588
666 1 3.5768 25.9031 5.3506
667 1 4.6428 28.1890 5.3506
668 1 1.8238 28.1120 4.4588
669 1 5.7857 27.6560 2.6753
670 1 8.6045 27.7331 3.5670
671 1 7.4616 28.2660 4.4588
672 1 6.9287 27.1231 5.3506
673 1 10.2805 28.3431 5.3506
674 1 11.0507 0.1539 8.9176
675 1 12.7267 0.7639 7.1341
676 1 13.8696 0.2310 8.0258
677 1 14.4027 1.3739 8.9176
678 1 15.5456 0.8410 6.2423
679 1 16.0786 1.9839 7.1341
680 1 18.3644 0.9180 7.1341
681 1 17.2215 1.4510 8.0258
682 1 16.6886 0.3081 8.9176
683 1 17.7544 2.5939 8.9176
684 1 18.8974 2.0610 6.2423
685 1 21.1834 0.9950 6.2423
686 1 19.4305 3.2039 7.1341
687 1 19.5074 0.3850 8.0258
688 1 20.5734 2.6709 8.0258
689 1 20.0404 1.5280 8.9176
690 1 21.1063 3.8139 8.9176
691 1 4.2699 0.5329 6.2423
692 1 7.0888 0.6099 7.1341
693 1 5.9459 1.1429 8.0258
694 1 5.4129 0.0000 8.9176
695 1 7.6218 1.7529 6.2423
696 1 9.9077 0.6869 6.2423
697 1 10.4406 1.8299 7.1341
698 1 8.2318 0.0769 8.0258
699 1 9.2977 2.3629 8.0258
700 1 8.7648 1.2200 8.9176
701 1 10.9737 2.9729 6.2423
702 1 13.2596 1.9069 6.2423
703 1 13.7926 3.0499 7.1341
704 1 11.5837 1.2969 8.0258
705 1 12.6496 3.5829 8.0258
706 1 12.1167 2.4400 8.9176
707 1 14.3256 4.1929 6.2423
708 1 16.6115 3.1269 6.2423
709 1 17.1444 4.2699 7.1341
710 1 14.9356 2.5169 8.0258
711 1 16.0015 4.8028 8.0258
712 1 15.4686 3.6599 8.9176
713 1 17.6775 5.4128 6.2423
714 1 19.9634 4.3469 6.2423
715 1 20.4963 5.4899 7.1341
716 1 18.2874 3.7369 8.0258
717 1 19.3534 6.0228 8.0258
718 1 18.8205 4.8799 8.9176
719 1 21.0293 6.6328 6.2423
720 1 1.4511 0.4558 7.1341
721 1 3.1269 1.0658 8.9176
722 1 1.9840 1.5988 6.2423
723 1 2.5169 2.7418 7.1341
724 1 0.3080 0.9889 8.0258
725 1 1.3740 3.2748 8.0258
726 1 0.8410 2.1319 8.9176
727 1 4.8030 1.6758 7.1341
728 1 6.4788 2.2858 8.9176
729 1 3.0499 3.8848 6.2423
730 1 5.3359 2.8188 6.2423
731 1 5.8688 3.9618 7.1341
732 1 3.6599 2.2088 8.0258
733 1 4.7259 4.4948 8.0258
734 1 4.1929 3.3519 8.9176
735 1 8.1548 2.8958 7.1341
736 1 9.8307 3.5058 8.9176
737 1 6.4018 5.1048 6.2423
738 1 8.6878 4.0388 6.2423
739 1 9.2207 5.1818 7.1341
740 1 7.0118 3.4288 8.0258
741 1 8.0778 5.7148 8.0258
742 1 7.5448 4.5719 8.9176
743 1 11.5067 4.1158 7.1341
744 1 13.1827 4.7258 8.9176
745 1 9.7537 6.3248 6.2423
746 1 12.0396 5.2588 6.2423
747 1 12.5726 6.4018 7.1341
748 1 10.3637 4.6488 8.0258
749 1 11.4296 6.9347 8.0258
750 1 10.8967 5.7918 8.9176
751 1 14.8586 5.3358 7.1341
752 1 16.5345 5.9457 8.9176
753 1 13.1056 7.5447 6.2423
754 1 15.3915 6.4788 6.2423
755 1 15.9244 7.6218 7.1341
756 1 13.7156 5.8688 8.0258
757 1 14.7815 8.1547 8.0258
758 1 14.2486 7.0118 8.9176
759 1 18.2105 6.5558 7.1341
760 1 19.8863 7.1657 8.9176
761 1 16.4575 8.7647 6.2423
762 1 18.7434 7.6988 6.2423
763 1 19.2763 8.8418 7.1341
764 1 17.0675 7.0888 8.0258
765 1 18.1334 9.3747 8.0258
766 1 17.6005 8.2318 8.9176
767 1 19.8094 9.9847 6.2423
768 1 20.4193 8.3088 8.0258
769 1 20.9523 9.4518 8.9176
770 1 0.2311 3.8078 7.1341
771 1 1.9069 4.4178 8.9176
772 1 0.7640 4.9507 6.2423
773 1 1.2969 6.0937 7.1341
774 1 0.1540 6.6267 8.0258
775 1 3.5829 5.0278 7.1341
776 1 5.2588 5.6378 8.9176
777 1 1.8299 7.2367 6.2423
778 1 4.1159 6.1707 6.2423
779 1 4.6488 7.3137 7.1341
780 1 2.4399 5.5607 8.0258
781 1 3.5059 7.8467 8.0258
782 1 2.9729 6.7038 8.9176
783 1 6.9348 6.2478 7.1341
784 1 8.6107 6.8578 8.9176
785 1 5.1818 8.4566 6.2423
786 1 7.4678 7.3907 6.2423
787 1 8.0007 8.5337 7.1341
788 1 5.7918 6.7807 8.0258
789 1 6.8578 9.0666 8.0258
790 1 6.3248 7.9237 8.9176
791 1 10.2867 7.4678 7.1341
792 1 11.9626 8.0778 8.9176
793 1 8.5337 9.6766 6.2423
794 1 10.8196 8.6107 6.2423
795 1 11.3527 9.7537 7.1341
796 1 9.1437 8.0007 8.0258
797 1 10.2097 10.2866 8.0258
798 1 9.6767 9.1437 8.9176
799 1 13.6386 8.6878 7.1341
800 1 15.3144 9.2977 8.9176
801 1 11.8856 10.8966 6.2423
802 1 14.1715 9.8307 6.2423
803 1 14.7044 10.9737 7.1341
804 1 12.4956 9.2207 8.0258
805 1 13.5615 11.5066 8.0258
806 1 13.0286 10.3637 8.9176
807 1 16.9905 9.9078 7.1341
808 1 18.6663 10.5177 8.9176
809 1 15.2375 12.1166 6.2423
810 1 17.5234 11.0507 6.2423
811 1 18.0563 12.1937 7.1341
812 1 15.8475 10.4407 8.0258
813 1 16.9134 12.7266 8.0258
814 1 16.3805 11.5837 8.9176
815 1 20.3424 11.1277 7.1341
816 1 18.5894 13.3366 6.2423
817 1 20.8753 12.2706 6.2423
818 1 19.1994 11.6606 8.0258
819 1 20.2653 13.9466 8.0258
820 1 19.7324 12.8037 8.9176
821 1 0.6870 7.7696 8.9176
822 1 0.0769 9.4456 7.1341
823 1 2.3630 8.3796 7.1341
824 1 4.0388 8.9896 8.9176
825 1 2.8959 9.5226 6.2423
826 1 3.4288 10.6656 7.1341
827 1 1.2200 8.9126 8.0258
828 1 1.7530 10.0556 8.9176
829 1 5.7149 9.5996 7.1341
830 1 7.3907 10.2095 8.9176
831 1 6.2478 10.7426 6.2423
832 1 6.7807 11.8856 7.1341
833 1 4.5718 10.1326 8.0258
834 1 5.1048 11.2756 8.9176
835 1 9.0668 10.8196 7.1341
836 1 10.7427 11.4296 8.9176
837 1 9.5997 11.9626 6.2423
838 1 10.1327 13.1056 7.1341
839 1 7.9237 11.3526 8.0258
840 1 8.4567 12.4956 8.9176
841 1 12.4186 12.0396 7.1341
842 1 14.0945 12.6495 8.9176
843 1 12.9515 13.1826 6.2423
844 1 13.4845 14.3256 7.1341
845 1 11.2756 12.5726 8.0258
846 1 11.8086 13.7156 8.9176
847 1 15.7705 13.2595 7.1341
848 1 17.4464 13.8695 8.9176
849 1 16.3034 14.4025 6.2423
850 1 16.8363 15.5455 7.1341
851 1 14.6275 13.7925 8.0258
852 1 15.1605 14.9356 8.9176
853 1 19.1224 14.4795 7.1341
854 1 20.7983 15.0895 8.9176
855 1 19.6553 15.6225 6.2423
856 1 20.1882 16.7655 7.1341
857 1 17.9794 15.0125 8.0258
858 1 18.5124 16.1556 8.9176
859 1 21.3313 16.2325 8.0258
860 1 0.6100 10.5885 6.2423
861 1 1.1430 11.7315 7.1341
862 1 2.2859 11.1985 8.0258
863 1 2.8188 12.3414 8.9176
864 1 1.6759 12.8745 6.2423
865 1 2.2088 14.0175 7.1341
866 1 0.0000 12.2645 8.0258
867 1 0.5330 13.4075 8.9176
868 1 3.9618 11.8085 6.2423
869 1 4.4949 12.9515 7.1341
870 1 5.6378 12.4185 8.0258
871 1 6.1707 13.5614 8.9176
872 1 5.0278 14.0945 6.2423
873 1 5.5607 15.2375 7.1341
874 1 3.3519 13.4845 8.0258
875 1 3.8849 14.6275 8.9176
876 1 7.3137 13.0285 6.2423
877 1 7.8468 14.1715 7.1341
878 1 8.9897 13.6385 8.0258
879 1 9.5227 14.7814 8.9176
880 1 8.3797 15.3145 6.2423
881 1 8.9127 16.4575 7.1341
882 1 6.7037 14.7045 8.0258
883 1 7.2367 15.8475 8.9176
884 1 10.6656 14.2485 6.2423
885 1 11.1987 15.3914 7.1341
886 1 12.3416 14.8585 8.0258
887 1 12.8745 16.0014 8.9176
888 1 11.7316 16.5344 6.2423
889 1 12.2645 17.6774 7.1341
890 1 10.0556 15.9244 8.0258
891 1 10.5886 17.0675 8.9176
892 1 14.0175 15.4685 6.2423
893 1 14.5505 16.6114 7.1341
894 1 15.6934 16.0785 8.0258
895 1 16.2264 17.2214 8.9176
896 1 15.0834 17.7544 6.2423
897 1 15.6164 18.8974 7.1341
898 1 13.4075 17.1444 8.0258
899 1 13.9405 18.2875 8.9176
900 1 17.3694 16.6885 6.2423
901 1 17.9024 17.8314 7.1341
902 1 19.0453 17.2985 8.0258
903 1 19.5783 18.4414 8.9176
904 1 18.4353 18.9744 6.2423
905 1 18.9682 20.1174 7.1341
906 1 16.7594 18.3644 8.0258
907 1 17.2924 19.5074 8.9176
908 1 20.7213 17.9085 6.2423
909 1 21.2543 19.0514 7.1341
910 1 20.1113 19.5844 8.0258
911 1 20.6443 20.7274 8.9176
912 1 1.0659 14.5504 8.0258
913 1 1.5989 15.6933 8.9176
914 1 0.4559 16.2264 6.2423
915 1 0.9888 17.3694 7.1341
916 1 2.7419 15.1604 6.2423
917 1 3.2749 16.3034 7.1341
918 1 4.4178 15.7704 8.0258
919 1 4.9507 16.9133 8.9176
920 1 3.8078 17.4463 6.2423
921 1 4.3407 18.5893 7.1341
922 1 2.1319 16.8364 8.0258
923 1 2.6649 17.9794 8.9176
924 1 6.0937 16.3804 6.2423
925 1 6.6268 17.5233 7.1341
926 1 7.7697 16.9904 8.0258
927 1 8.3027 18.1333 8.9176
928 1 7.1597 18.6663 6.2423
929 1 7.6927 19.8094 7.1341
930 1 5.4837 18.0563 8.0258
931 1 6.0168 19.1994 8.9176
932 1 9.4456 17.6004 6.2423
933 1 9.9787 18.7433 7.1341
934 1 11.1216 18.2104 8.0258
935 1 11.6545 19.3533 8.9176
936 1 10.5116 19.8863 6.2423
937 1 11.0445 21.0293 7.1341
938 1 8.8356 19.2763 8.0258
939 1 9.3686 20.4194 8.9176
940 1 12.7975 18.8204 6.2423
941 1 13.3305 19.9633 7.1341
942 1 14.4735 19.4304 8.0258
943 1 15.0064 20.5733 8.9176
944 1 13.8635 21.1063 6.2423
945 1 14.3964 22.2493 7.1341
946 1 12.1875 20.4963 8.0258
947 1 12.7205 21.6393 8.9176
948 1 16.1494 20.0404 6.2423
949 1 16.6824 21.1833 7.1341
950 1 17.8253 20.6504 8.0258
951 1 18.3583 21.7933 8.9176
952 1 17.2153 22.3263 6.2423
953 1 17.7483 23.4693 7.1341
954 1 15.5394 21.7163 8.0258
955 1 16.0724 22.8593 8.9176
956 1 19.5013 21.2603 6.2423
957 1 20.0343 22.4033 7.1341
958 1 21.1772 21.8703 8.0258
959 1 20.5672 23.5463 6.2423
960 1 21.1001 24.6893 7.1341
961 1 18.8913 22.9363 8.0258
962 1 19.4243 24.0793 8.9176
963 1 0.3789 19.0452 8.9176
964 1 1.5219 18.5123 6.2423
965 1 2.0549 19.6552 7.1341
966 1 3.1978 19.1223 8.0258
967 1 3.7308 20.2652 8.9176
968 1 2.5878 20.7982 6.2423
969 1 0.9119 20.1882 8.0258
970 1 4.8738 19.7323 6.2423
971 1 5.4068 20.8752 7.1341
972 1 6.5497 20.3423 8.0258
973 1 7.0827 21.4852 8.9176
974 1 5.9397 22.0182 6.2423
975 1 4.2638 21.4082 8.0258
976 1 8.2256 20.9523 6.2423
977 1 8.7587 22.0952 7.1341
978 1 9.9016 21.5623 8.0258
979 1 10.4345 22.7052 8.9176
980 1 9.2916 23.2382 6.2423
981 1 7.6156 22.6282 8.0258
982 1 11.5775 22.1723 6.2423
983 1 12.1106 23.3152 7.1341
984 1 13.2535 22.7822 8.0258
985 1 13.7864 23.9252 8.9176
986 1 12.6435 24.4582 6.2423
987 1 10.9675 23.8482 8.0258
988 1 14.9294 23.3922 6.2423
989 1 15.4624 24.5352 7.1341
990 1 16.6053 24.0022 8.0258
991 1 17.1383 25.1451 8.9176
992 1 15.9954 25.6782 6.2423
993 1 14.3194 25.0682 8.0258
994 1 18.2813 24.6122 6.2423
995 1 18.8143 25.7552 7.1341
996 1 19.9572 25.2222 8.0258
997 1 20.4902 26.3651 8.9176
998 1 19.3472 26.8982 6.2423
999 1 17.6713 26.2882 8.0258
1000 1 0.3019 21.8642 6.2423
1001 1 0.8349 23.0071 7.1341
1002 1 3.1207 21.9412 7.1341
1003 1 1.9778 22.4742 8.0258
1004 1 1.4449 21.3313 8.9176
1005 1 2.5108 23.6171 8.9176
1006 1 1.3678 24.1501 6.2423
1007 1 3.6538 23.0842 6.2423
1008 1 4.1868 24.2271 7.1341
1009 1 6.4727 23.1613 7.1341
1010 1 5.3297 23.6942 8.0258
1011 1 4.7968 22.5513 8.9176
1012 1 5.8628 24.8371 8.9176
1013 1 4.7197 25.3701 6.2423
1014 1 3.0438 24.7601 8.0258
1015 1 7.0057 24.3042 6.2423
1016 1 7.5387 25.4471 7.1341
1017 1 9.8245 24.3812 7.1341
1018 1 8.6816 24.9141 8.0258
1019 1 8.1487 23.7712 8.9176
1020 1 9.2145 26.0571 8.9176
1021 1 8.0716 26.5901 6.2423
1022 1 6.3957 25.9801 8.0258
1023 1 10.3575 25.5241 6.2423
1024 1 10.8906 26.6671 7.1341
1025 1 13.1764 25.6012 7.1341
1026 1 12.0335 26.1341 8.0258
1027 1 11.5005 24.9912 8.9176
1028 1 12.5664 27.2770 8.9176
1029 1 11.4235 27.8101 6.2423
1030 1 9.7475 27.2001 8.0258
1031 1 13.7094 26.7441 6.2423
1032 1 14.2425 27.8871 7.1341
1033 1 16.5283 26.8212 7.1341
1034 1 15.3854 27.3541 8.0258
1035 1 14.8524 26.2112 8.9176
1036 1 15.9183 28.4970 8.9176
1037 1 13.0994 28.4201 8.0258
1038 1 17.0613 27.9641 6.2423
1039 1 19.8802 28.0412 7.1341
1040 1 18.2043 27.4312 8.9176
1041 1 1.9007 25.2931 7.1341
1042 1 0.7578 25.8261 8.0258
1043 1 0.2249 24.6832 8.9176
1044 1 1.2908 26.9690 8.9176
1045 1 0.1479 27.5020 6.2423
1046 1 2.4338 26.4361 6.2423
1047 1 2.9668 27.5790 7.1341
1048 1 5.2527 26.5131 7.1341
1049 1 4.1097 27.0460 8.0258
1050 1 3.5768 25.9031 8.9176
1051 1 4.6428 28.1890 8.9176
1052 1 1.8238 28.1120 8.0258
1053 1 5.7857 27.6560 6.2423
1054 1 8.6045 27.7331 7.1341
1055 1 7.4616 28.2660 8.0258
1056 1 6.9287 27.1231 8.9176
1057 1 10.2805 28.3431 8.9176
