LAMMPS data file from restart file: timestep = 1, procs = 1

234 atoms

3 atom types

0.0000 11.4636 xlo xhi
0.0000 27.0199 ylo yhi
-50 71.34 zlo zhi

Masses

1 12.01
2 2
3 3

Atoms

1 1 0.0000 0.8917 0.0000
2 1 0.0000 4.4587 0.0000
3 1 0.0000 8.0257 0.0000
4 1 0.0000 11.5927 0.0000
5 1 0.0000 15.1597 0.0000
6 1 0.0000 18.7267 0.0000
7 1 0.0000 22.2937 0.0000
8 1 0.0000 25.8607 0.0000
9 1 1.2611 1.7834 0.0000
10 1 2.5223 0.8917 2.5223
11 1 2.5223 0.8917 0.0000
12 1 2.5223 0.0000 1.2611
13 1 3.7834 1.7834 0.0001
14 1 5.0445 0.8917 0.0000
15 1 1.2611 5.3504 0.0000
16 1 1.2611 2.6752 1.2611
17 1 2.5223 4.4587 2.5223
18 1 3.7834 2.6752 1.2611
19 1 2.5223 4.4587 0.0000
20 1 2.5223 3.5670 1.2611
21 1 3.7834 5.3504 0.0001
22 1 5.0445 4.4587 0.0000
23 1 1.2611 8.9174 0.0000
24 1 1.2611 6.2422 1.2611
25 1 2.5223 8.0257 2.5223
26 1 3.7834 6.2422 1.2611
27 1 2.5223 8.0257 0.0000
28 1 2.5223 7.1340 1.2611
29 1 3.7834 8.9174 0.0001
30 1 5.0445 8.0257 0.0000
31 1 1.2611 12.4845 0.0000
32 1 1.2611 9.8092 1.2611
33 1 2.5223 11.5927 2.5223
34 1 3.7834 9.8092 1.2611
35 1 2.5223 11.5927 0.0000
36 1 2.5223 10.7010 1.2611
37 1 3.7834 12.4845 0.0001
38 1 5.0445 11.5927 0.0000
39 1 1.2611 16.0514 0.0000
40 1 1.2611 13.3762 1.2611
41 1 2.5223 15.1597 2.5223
42 1 3.7834 13.3762 1.2611
43 1 2.5223 15.1597 0.0000
44 1 2.5223 14.2680 1.2611
45 1 3.7834 16.0514 0.0001
46 1 5.0445 15.1597 0.0000
47 1 1.2611 19.6184 0.0000
48 1 1.2611 16.9432 1.2611
49 1 2.5223 18.7267 2.5223
50 1 3.7834 16.9432 1.2611
51 1 2.5223 18.7267 0.0000
52 1 2.5223 17.8350 1.2611
53 1 3.7834 19.6184 0.0001
54 1 5.0445 18.7267 0.0000
55 1 1.2611 23.1854 0.0000
56 1 1.2611 20.5102 1.2611
57 1 2.5223 22.2937 2.5223
58 1 3.7834 20.5102 1.2611
59 1 2.5223 22.2937 0.0000
60 1 2.5223 21.4020 1.2611
61 1 3.7834 23.1854 0.0001
62 1 5.0445 22.2937 0.0000
63 1 1.2611 26.7524 0.0000
64 1 1.2611 24.0772 1.2611
65 1 2.5223 25.8607 2.5223
66 1 3.7834 24.0772 1.2611
67 1 2.5223 25.8607 0.0000
68 1 2.5223 24.9690 1.2611
69 1 3.7834 26.7524 0.0001
70 1 5.0445 25.8607 0.0000
71 1 3.7834 1.7834 2.5222
72 1 5.0445 0.0000 1.2611
73 1 5.0445 0.8917 2.5223
74 1 5.0446 0.0000 3.7834
75 1 6.3056 1.7834 2.5223
76 1 6.3056 1.7834 0.0000
77 1 7.5668 0.8917 0.0000
78 1 7.5668 0.0000 1.2611
79 1 8.8279 1.7834 0.0001
80 1 3.7834 5.3504 2.5222
81 1 5.0445 3.5670 1.2611
82 1 3.7834 2.6752 3.7834
83 1 5.0445 4.4587 2.5223
84 1 5.0446 3.5670 3.7834
85 1 6.3056 5.3504 2.5223
86 1 6.3056 5.3504 0.0000
87 1 6.3056 2.6752 1.2611
88 1 7.5668 4.4587 0.0000
89 1 7.5668 3.5670 1.2611
90 1 8.8279 5.3504 0.0001
91 1 3.7834 8.9174 2.5222
92 1 5.0445 7.1340 1.2611
93 1 3.7834 6.2422 3.7834
94 1 5.0445 8.0257 2.5223
95 1 5.0446 7.1340 3.7834
96 1 6.3056 8.9174 2.5223
97 1 6.3056 8.9174 0.0000
98 1 6.3056 6.2422 1.2611
99 1 7.5668 8.0257 0.0000
100 1 7.5668 7.1340 1.2611
101 1 8.8279 8.9174 0.0001
102 1 3.7834 12.4845 2.5222
103 1 5.0445 10.7010 1.2611
104 1 3.7834 9.8092 3.7834
105 1 5.0445 11.5927 2.5223
106 1 5.0446 10.7010 3.7834
107 1 6.3056 12.4845 2.5223
108 1 6.3056 12.4845 0.0000
109 1 6.3056 9.8092 1.2611
110 1 7.5668 11.5927 0.0000
111 1 7.5668 10.7010 1.2611
112 1 8.8279 12.4845 0.0001
113 1 3.7834 16.0514 2.5222
114 1 5.0445 14.2680 1.2611
115 1 3.7834 13.3762 3.7834
116 1 5.0445 15.1597 2.5223
117 1 5.0446 14.2680 3.7834
118 1 6.3056 16.0514 2.5223
119 1 6.3056 16.0514 0.0000
120 1 6.3056 13.3762 1.2611
121 1 7.5668 15.1597 0.0000
122 1 7.5668 14.2680 1.2611
123 1 8.8279 16.0514 0.0001
124 1 3.7834 19.6184 2.5222
125 1 5.0445 17.8350 1.2611
126 1 3.7834 16.9432 3.7834
127 1 5.0445 18.7267 2.5223
128 1 5.0446 17.8350 3.7834
129 1 6.3056 19.6184 2.5223
130 1 6.3056 19.6184 0.0000
131 1 6.3056 16.9432 1.2611
132 1 7.5668 18.7267 0.0000
133 1 7.5668 17.8350 1.2611
134 1 8.8279 19.6184 0.0001
135 1 3.7834 23.1854 2.5222
136 1 5.0445 21.4020 1.2611
137 1 3.7834 20.5102 3.7834
138 1 5.0445 22.2937 2.5223
139 1 5.0446 21.4020 3.7834
140 1 6.3056 23.1854 2.5223
141 1 6.3056 23.1854 0.0000
142 1 6.3056 20.5102 1.2611
143 1 7.5668 22.2937 0.0000
144 1 7.5668 21.4020 1.2611
145 1 8.8279 23.1854 0.0001
146 1 3.7834 26.7524 2.5222
147 1 5.0445 24.9690 1.2611
148 1 3.7834 24.0772 3.7834
149 1 5.0445 25.8607 2.5223
150 1 5.0446 24.9690 3.7834
151 1 6.3056 26.7524 2.5223
152 1 6.3056 26.7524 0.0000
153 1 6.3056 24.0772 1.2611
154 1 7.5668 25.8607 0.0000
155 1 7.5668 24.9690 1.2611
156 1 8.8279 26.7524 0.0001
157 1 5.0445 0.8917 5.0445
158 1 6.3056 1.7834 5.0445
159 1 7.5667 0.0000 3.7834
160 1 7.5668 0.8917 2.5223
161 1 8.8279 1.7834 2.5222
162 1 10.0890 0.0000 1.2611
163 1 10.0890 0.8917 0.0000
164 1 11.3501 1.7834 0.0000
165 1 5.0445 4.4587 5.0445
166 1 6.3056 2.6752 3.7834
167 1 6.3056 5.3504 5.0445
168 1 7.5667 3.5670 3.7834
169 1 7.5668 4.4587 2.5223
170 1 8.8279 2.6752 1.2611
171 1 8.8279 5.3504 2.5222
172 1 10.0890 3.5670 1.2611
173 1 10.0890 4.4587 0.0000
174 1 11.3501 5.3504 0.0000
175 1 5.0445 8.0257 5.0445
176 1 6.3056 6.2422 3.7834
177 1 6.3056 8.9174 5.0445
178 1 7.5667 7.1340 3.7834
179 1 7.5668 8.0257 2.5223
180 1 8.8279 6.2422 1.2611
181 1 8.8279 8.9174 2.5222
182 1 10.0890 7.1340 1.2611
183 1 10.0890 8.0257 0.0000
184 1 11.3501 8.9174 0.0000
185 1 5.0445 11.5927 5.0445
186 1 6.3056 9.8092 3.7834
187 1 6.3056 12.4845 5.0445
188 1 7.5667 10.7010 3.7834
189 1 7.5668 11.5927 2.5223
190 1 8.8279 9.8092 1.2611
191 1 8.8279 12.4845 2.5222
192 1 10.0890 10.7010 1.2611
193 1 10.0890 11.5927 0.0000
194 1 11.3501 12.4845 0.0000
195 1 5.0445 15.1597 5.0445
196 1 6.3056 13.3762 3.7834
197 1 6.3056 16.0514 5.0445
198 1 7.5667 14.2680 3.7834
199 1 7.5668 15.1597 2.5223
200 1 8.8279 13.3762 1.2611
201 1 8.8279 16.0514 2.5222
202 1 10.0890 14.2680 1.2611
203 1 10.0890 15.1597 0.0000
204 1 11.3501 16.0514 0.0000
205 1 5.0445 18.7267 5.0445
206 1 6.3056 16.9432 3.7834
207 1 6.3056 19.6184 5.0445
208 1 7.5667 17.8350 3.7834
209 1 7.5668 18.7267 2.5223
210 1 8.8279 16.9432 1.2611
211 1 8.8279 19.6184 2.5222
212 1 10.0890 17.8350 1.2611
213 1 10.0890 18.7267 0.0000
214 1 11.3501 19.6184 0.0000
215 1 5.0445 22.2937 5.0445
216 1 6.3056 20.5102 3.7834
217 1 6.3056 23.1854 5.0445
218 1 7.5667 21.4020 3.7834
219 1 7.5668 22.2937 2.5223
220 1 8.8279 20.5102 1.2611
221 1 8.8279 23.1854 2.5222
222 1 10.0890 21.4020 1.2611
223 1 10.0890 22.2937 0.0000
224 1 11.3501 23.1854 0.0000
225 1 5.0445 25.8607 5.0445
226 1 6.3056 24.0772 3.7834
227 1 6.3056 26.7524 5.0445
228 1 7.5667 24.9690 3.7834
229 1 7.5668 25.8607 2.5223
230 1 8.8279 24.0772 1.2611
231 1 8.8279 26.7524 2.5222
232 1 10.0890 24.9690 1.2611
233 1 10.0890 25.8607 0.0000
234 1 11.3501 26.7524 0.0000
