LAMMPS data file from restart file: timestep = 1, procs = 1

1386 atoms

3 atom types

0.0000 20.7153 xlo xhi
0.0000 27.9206 ylo yhi
-50 71.34 zlo zhi

Masses

1 12.01
2 2
3 3

Atoms

1 1 0.0000 0.8917 0.0000
2 1 1.2611 1.7834 0.0000
3 1 2.5223 0.8917 2.5223
4 1 2.5223 0.8917 0.0000
5 1 2.5223 0.0000 1.2611
6 1 1.2611 2.6752 1.2611
7 1 3.7834 1.7834 0.0001
8 1 5.0445 0.8917 0.0000
9 1 3.7834 2.6752 1.2611
10 1 3.7834 1.7834 2.5222
11 1 5.0445 0.0000 1.2611
12 1 5.0445 0.8917 2.5223
13 1 6.3056 1.7834 2.5223
14 1 6.3056 1.7834 0.0000
15 1 6.3056 2.6752 1.2611
16 1 7.5668 0.8917 0.0000
17 1 7.5668 0.0000 1.2611
18 1 8.8279 1.7834 0.0001
19 1 7.5668 0.8917 2.5223
20 1 8.8279 1.7834 2.5222
21 1 10.0890 0.0000 1.2611
22 1 10.0890 0.8917 0.0000
23 1 8.8279 2.6752 1.2611
24 1 11.3501 1.7834 0.0000
25 1 0.0000 4.4587 0.0000
26 1 1.2611 5.3504 0.0000
27 1 2.5223 4.4587 2.5223
28 1 2.5223 4.4587 0.0000
29 1 2.5223 3.5670 1.2611
30 1 1.2611 6.2422 1.2611
31 1 3.7834 5.3504 0.0001
32 1 5.0445 4.4587 0.0000
33 1 3.7834 6.2422 1.2611
34 1 3.7834 5.3504 2.5222
35 1 5.0445 3.5670 1.2611
36 1 5.0445 4.4587 2.5223
37 1 6.3056 5.3504 2.5223
38 1 6.3056 5.3504 0.0000
39 1 6.3056 6.2422 1.2611
40 1 7.5668 4.4587 0.0000
41 1 7.5668 3.5670 1.2611
42 1 8.8279 5.3504 0.0001
43 1 7.5668 4.4587 2.5223
44 1 8.8279 5.3504 2.5222
45 1 10.0890 3.5670 1.2611
46 1 10.0890 4.4587 0.0000
47 1 8.8279 6.2422 1.2611
48 1 11.3501 5.3504 0.0000
49 1 0.0000 8.0257 0.0000
50 1 1.2611 8.9174 0.0000
51 1 2.5223 8.0257 2.5223
52 1 2.5223 8.0257 0.0000
53 1 2.5223 7.1340 1.2611
54 1 1.2611 9.8092 1.2611
55 1 3.7834 8.9174 0.0001
56 1 5.0445 8.0257 0.0000
57 1 3.7834 9.8092 1.2611
58 1 3.7834 8.9174 2.5222
59 1 5.0445 7.1340 1.2611
60 1 5.0445 8.0257 2.5223
61 1 6.3056 8.9174 2.5223
62 1 6.3056 8.9174 0.0000
63 1 6.3056 9.8092 1.2611
64 1 7.5668 8.0257 0.0000
65 1 7.5668 7.1340 1.2611
66 1 8.8279 8.9174 0.0001
67 1 7.5668 8.0257 2.5223
68 1 8.8279 8.9174 2.5222
69 1 10.0890 7.1340 1.2611
70 1 10.0890 8.0257 0.0000
71 1 8.8279 9.8092 1.2611
72 1 11.3501 8.9174 0.0000
73 1 0.0000 11.5927 0.0000
74 1 1.2611 12.4845 0.0000
75 1 2.5223 11.5927 2.5223
76 1 2.5223 11.5927 0.0000
77 1 2.5223 10.7010 1.2611
78 1 1.2611 13.3762 1.2611
79 1 3.7834 12.4845 0.0001
80 1 5.0445 11.5927 0.0000
81 1 3.7834 13.3762 1.2611
82 1 3.7834 12.4845 2.5222
83 1 5.0445 10.7010 1.2611
84 1 5.0445 11.5927 2.5223
85 1 6.3056 12.4845 2.5223
86 1 6.3056 12.4845 0.0000
87 1 6.3056 13.3762 1.2611
88 1 7.5668 11.5927 0.0000
89 1 7.5668 10.7010 1.2611
90 1 8.8279 12.4845 0.0001
91 1 7.5668 11.5927 2.5223
92 1 8.8279 12.4845 2.5222
93 1 10.0890 10.7010 1.2611
94 1 10.0890 11.5927 0.0000
95 1 8.8279 13.3762 1.2611
96 1 11.3501 12.4845 0.0000
97 1 0.0000 15.1597 0.0000
98 1 1.2611 16.0514 0.0000
99 1 2.5223 15.1597 2.5223
100 1 2.5223 15.1597 0.0000
101 1 2.5223 14.2680 1.2611
102 1 1.2611 16.9432 1.2611
103 1 3.7834 16.0514 0.0001
104 1 5.0445 15.1597 0.0000
105 1 3.7834 16.9432 1.2611
106 1 3.7834 16.0514 2.5222
107 1 5.0445 14.2680 1.2611
108 1 5.0445 15.1597 2.5223
109 1 6.3056 16.0514 2.5223
110 1 6.3056 16.0514 0.0000
111 1 6.3056 16.9432 1.2611
112 1 7.5668 15.1597 0.0000
113 1 7.5668 14.2680 1.2611
114 1 8.8279 16.0514 0.0001
115 1 7.5668 15.1597 2.5223
116 1 8.8279 16.0514 2.5222
117 1 10.0890 14.2680 1.2611
118 1 10.0890 15.1597 0.0000
119 1 8.8279 16.9432 1.2611
120 1 11.3501 16.0514 0.0000
121 1 0.0000 18.7267 0.0000
122 1 1.2611 19.6184 0.0000
123 1 2.5223 18.7267 2.5223
124 1 2.5223 18.7267 0.0000
125 1 2.5223 17.8350 1.2611
126 1 1.2611 20.5102 1.2611
127 1 3.7834 19.6184 0.0001
128 1 5.0445 18.7267 0.0000
129 1 3.7834 20.5102 1.2611
130 1 3.7834 19.6184 2.5222
131 1 5.0445 17.8350 1.2611
132 1 5.0445 18.7267 2.5223
133 1 6.3056 19.6184 2.5223
134 1 6.3056 19.6184 0.0000
135 1 6.3056 20.5102 1.2611
136 1 7.5668 18.7267 0.0000
137 1 7.5668 17.8350 1.2611
138 1 8.8279 19.6184 0.0001
139 1 7.5668 18.7267 2.5223
140 1 8.8279 19.6184 2.5222
141 1 10.0890 17.8350 1.2611
142 1 10.0890 18.7267 0.0000
143 1 8.8279 20.5102 1.2611
144 1 11.3501 19.6184 0.0000
145 1 0.0000 22.2937 0.0000
146 1 1.2611 23.1854 0.0000
147 1 2.5223 22.2937 2.5223
148 1 2.5223 22.2937 0.0000
149 1 2.5223 21.4020 1.2611
150 1 1.2611 24.0772 1.2611
151 1 3.7834 23.1854 0.0001
152 1 5.0445 22.2937 0.0000
153 1 3.7834 24.0772 1.2611
154 1 3.7834 23.1854 2.5222
155 1 5.0445 21.4020 1.2611
156 1 5.0445 22.2937 2.5223
157 1 6.3056 23.1854 2.5223
158 1 6.3056 23.1854 0.0000
159 1 6.3056 24.0772 1.2611
160 1 7.5668 22.2937 0.0000
161 1 7.5668 21.4020 1.2611
162 1 8.8279 23.1854 0.0001
163 1 7.5668 22.2937 2.5223
164 1 8.8279 23.1854 2.5222
165 1 10.0890 21.4020 1.2611
166 1 10.0890 22.2937 0.0000
167 1 8.8279 24.0772 1.2611
168 1 11.3501 23.1854 0.0000
169 1 0.0000 25.8607 0.0000
170 1 1.2611 26.7524 0.0000
171 1 2.5223 25.8607 2.5223
172 1 2.5223 25.8607 0.0000
173 1 2.5223 24.9690 1.2611
174 1 3.7834 26.7524 0.0001
175 1 5.0445 25.8607 0.0000
176 1 3.7834 26.7524 2.5222
177 1 5.0445 24.9690 1.2611
178 1 5.0445 25.8607 2.5223
179 1 6.3056 26.7524 2.5223
180 1 6.3056 26.7524 0.0000
181 1 7.5668 25.8607 0.0000
182 1 7.5668 24.9690 1.2611
183 1 8.8279 26.7524 0.0001
184 1 7.5668 25.8607 2.5223
185 1 8.8279 26.7524 2.5222
186 1 10.0890 24.9690 1.2611
187 1 10.0890 25.8607 0.0000
188 1 11.3501 26.7524 0.0000
189 1 5.0446 0.0000 3.7834
190 1 3.7834 2.6752 3.7834
191 1 5.0445 0.8917 5.0445
192 1 6.3056 1.7834 5.0445
193 1 6.3056 2.6752 3.7834
194 1 7.5667 0.0000 3.7834
195 1 5.0446 3.5670 3.7834
196 1 3.7834 6.2422 3.7834
197 1 5.0445 4.4587 5.0445
198 1 6.3056 5.3504 5.0445
199 1 6.3056 6.2422 3.7834
200 1 7.5667 3.5670 3.7834
201 1 5.0446 7.1340 3.7834
202 1 3.7834 9.8092 3.7834
203 1 5.0445 8.0257 5.0445
204 1 6.3056 8.9174 5.0445
205 1 6.3056 9.8092 3.7834
206 1 7.5667 7.1340 3.7834
207 1 5.0446 10.7010 3.7834
208 1 3.7834 13.3762 3.7834
209 1 5.0445 11.5927 5.0445
210 1 6.3056 12.4845 5.0445
211 1 6.3056 13.3762 3.7834
212 1 7.5667 10.7010 3.7834
213 1 5.0446 14.2680 3.7834
214 1 3.7834 16.9432 3.7834
215 1 5.0445 15.1597 5.0445
216 1 6.3056 16.0514 5.0445
217 1 6.3056 16.9432 3.7834
218 1 7.5667 14.2680 3.7834
219 1 5.0446 17.8350 3.7834
220 1 3.7834 20.5102 3.7834
221 1 5.0445 18.7267 5.0445
222 1 6.3056 19.6184 5.0445
223 1 6.3056 20.5102 3.7834
224 1 7.5667 17.8350 3.7834
225 1 5.0446 21.4020 3.7834
226 1 3.7834 24.0772 3.7834
227 1 5.0445 22.2937 5.0445
228 1 6.3056 23.1854 5.0445
229 1 6.3056 24.0772 3.7834
230 1 7.5667 21.4020 3.7834
231 1 5.0446 24.9690 3.7834
232 1 5.0445 25.8607 5.0445
233 1 6.3056 26.7524 5.0445
234 1 7.5667 24.9690 3.7834
235 1 0.0000 0.0000 10.2010
236 1 0.0000 1.7835 11.9845
237 1 1.7835 0.0000 11.9845
238 1 1.7835 1.7835 10.2010
239 1 0.8918 0.8918 11.0928
240 1 2.6752 2.6752 11.0928
241 1 3.5670 0.0000 10.2010
242 1 3.5670 1.7835 11.9845
243 1 5.3505 0.0000 11.9845
244 1 5.3505 1.7835 10.2010
245 1 4.4588 0.8918 11.0928
246 1 6.2422 2.6752 11.0928
247 1 7.1340 0.0000 10.2010
248 1 7.1340 1.7835 11.9845
249 1 8.9175 0.0000 11.9845
250 1 8.9175 1.7835 10.2010
251 1 8.0258 0.8918 11.0928
252 1 9.8092 2.6752 11.0928
253 1 10.7010 0.0000 10.2010
254 1 10.7010 1.7835 11.9845
255 1 12.4845 0.0000 11.9845
256 1 12.4845 1.7835 10.2010
257 1 11.5928 0.8918 11.0928
258 1 13.3763 2.6752 11.0928
259 1 14.2680 0.0000 10.2010
260 1 14.2680 1.7835 11.9845
261 1 16.0515 0.0000 11.9845
262 1 16.0515 1.7835 10.2010
263 1 15.1598 0.8918 11.0928
264 1 16.9432 2.6752 11.0928
265 1 17.8350 0.0000 10.2010
266 1 17.8350 1.7835 11.9845
267 1 19.6185 0.0000 11.9845
268 1 19.6185 1.7835 10.2010
269 1 18.7268 0.8918 11.0928
270 1 20.5102 2.6752 11.0928
271 1 0.0000 3.5670 10.2010
272 1 0.0000 5.3505 11.9845
273 1 1.7835 3.5670 11.9845
274 1 1.7835 5.3505 10.2010
275 1 0.8918 4.4588 11.0928
276 1 2.6752 6.2422 11.0928
277 1 3.5670 3.5670 10.2010
278 1 3.5670 5.3505 11.9845
279 1 5.3505 3.5670 11.9845
280 1 5.3505 5.3505 10.2010
281 1 4.4588 4.4588 11.0928
282 1 6.2422 6.2422 11.0928
283 1 7.1340 3.5670 10.2010
284 1 7.1340 5.3505 11.9845
285 1 8.9175 3.5670 11.9845
286 1 8.9175 5.3505 10.2010
287 1 8.0258 4.4588 11.0928
288 1 9.8092 6.2422 11.0928
289 1 10.7010 3.5670 10.2010
290 1 10.7010 5.3505 11.9845
291 1 12.4845 3.5670 11.9845
292 1 12.4845 5.3505 10.2010
293 1 11.5928 4.4588 11.0928
294 1 13.3763 6.2422 11.0928
295 1 14.2680 3.5670 10.2010
296 1 14.2680 5.3505 11.9845
297 1 16.0515 3.5670 11.9845
298 1 16.0515 5.3505 10.2010
299 1 15.1598 4.4588 11.0928
300 1 16.9432 6.2422 11.0928
301 1 17.8350 3.5670 10.2010
302 1 17.8350 5.3505 11.9845
303 1 19.6185 3.5670 11.9845
304 1 19.6185 5.3505 10.2010
305 1 18.7268 4.4588 11.0928
306 1 20.5102 6.2422 11.0928
307 1 0.0000 7.1340 10.2010
308 1 0.0000 8.9175 11.9845
309 1 1.7835 7.1340 11.9845
310 1 1.7835 8.9175 10.2010
311 1 0.8918 8.0258 11.0928
312 1 2.6752 9.8092 11.0928
313 1 3.5670 7.1340 10.2010
314 1 3.5670 8.9175 11.9845
315 1 5.3505 7.1340 11.9845
316 1 5.3505 8.9175 10.2010
317 1 4.4588 8.0258 11.0928
318 1 6.2422 9.8092 11.0928
319 1 7.1340 7.1340 10.2010
320 1 7.1340 8.9175 11.9845
321 1 8.9175 7.1340 11.9845
322 1 8.9175 8.9175 10.2010
323 1 8.0258 8.0258 11.0928
324 1 9.8092 9.8092 11.0928
325 1 10.7010 7.1340 10.2010
326 1 10.7010 8.9175 11.9845
327 1 12.4845 7.1340 11.9845
328 1 12.4845 8.9175 10.2010
329 1 11.5928 8.0258 11.0928
330 1 13.3763 9.8092 11.0928
331 1 14.2680 7.1340 10.2010
332 1 14.2680 8.9175 11.9845
333 1 16.0515 7.1340 11.9845
334 1 16.0515 8.9175 10.2010
335 1 15.1598 8.0258 11.0928
336 1 16.9432 9.8092 11.0928
337 1 17.8350 7.1340 10.2010
338 1 17.8350 8.9175 11.9845
339 1 19.6185 7.1340 11.9845
340 1 19.6185 8.9175 10.2010
341 1 18.7268 8.0258 11.0928
342 1 20.5102 9.8092 11.0928
343 1 0.0000 10.7010 10.2010
344 1 0.0000 12.4845 11.9845
345 1 1.7835 10.7010 11.9845
346 1 1.7835 12.4845 10.2010
347 1 0.8918 11.5928 11.0928
348 1 2.6752 13.3763 11.0928
349 1 3.5670 10.7010 10.2010
350 1 3.5670 12.4845 11.9845
351 1 5.3505 10.7010 11.9845
352 1 5.3505 12.4845 10.2010
353 1 4.4588 11.5928 11.0928
354 1 6.2422 13.3763 11.0928
355 1 7.1340 10.7010 10.2010
356 1 7.1340 12.4845 11.9845
357 1 8.9175 10.7010 11.9845
358 1 8.9175 12.4845 10.2010
359 1 8.0258 11.5928 11.0928
360 1 9.8092 13.3763 11.0928
361 1 10.7010 10.7010 10.2010
362 1 10.7010 12.4845 11.9845
363 1 12.4845 10.7010 11.9845
364 1 12.4845 12.4845 10.2010
365 1 11.5928 11.5928 11.0928
366 1 13.3763 13.3763 11.0928
367 1 14.2680 10.7010 10.2010
368 1 14.2680 12.4845 11.9845
369 1 16.0515 10.7010 11.9845
370 1 16.0515 12.4845 10.2010
371 1 15.1598 11.5928 11.0928
372 1 16.9432 13.3763 11.0928
373 1 17.8350 10.7010 10.2010
374 1 17.8350 12.4845 11.9845
375 1 19.6185 10.7010 11.9845
376 1 19.6185 12.4845 10.2010
377 1 18.7268 11.5928 11.0928
378 1 20.5102 13.3763 11.0928
379 1 0.0000 14.2680 10.2010
380 1 0.0000 16.0515 11.9845
381 1 1.7835 14.2680 11.9845
382 1 1.7835 16.0515 10.2010
383 1 0.8918 15.1598 11.0928
384 1 2.6752 16.9432 11.0928
385 1 3.5670 14.2680 10.2010
386 1 3.5670 16.0515 11.9845
387 1 5.3505 14.2680 11.9845
388 1 5.3505 16.0515 10.2010
389 1 4.4588 15.1598 11.0928
390 1 6.2422 16.9432 11.0928
391 1 7.1340 14.2680 10.2010
392 1 7.1340 16.0515 11.9845
393 1 8.9175 14.2680 11.9845
394 1 8.9175 16.0515 10.2010
395 1 8.0258 15.1598 11.0928
396 1 9.8092 16.9432 11.0928
397 1 10.7010 14.2680 10.2010
398 1 10.7010 16.0515 11.9845
399 1 12.4845 14.2680 11.9845
400 1 12.4845 16.0515 10.2010
401 1 11.5928 15.1598 11.0928
402 1 13.3763 16.9432 11.0928
403 1 14.2680 14.2680 10.2010
404 1 14.2680 16.0515 11.9845
405 1 16.0515 14.2680 11.9845
406 1 16.0515 16.0515 10.2010
407 1 15.1598 15.1598 11.0928
408 1 16.9432 16.9432 11.0928
409 1 17.8350 14.2680 10.2010
410 1 17.8350 16.0515 11.9845
411 1 19.6185 14.2680 11.9845
412 1 19.6185 16.0515 10.2010
413 1 18.7268 15.1598 11.0928
414 1 20.5102 16.9432 11.0928
415 1 0.0000 17.8350 10.2010
416 1 0.0000 19.6185 11.9845
417 1 1.7835 17.8350 11.9845
418 1 1.7835 19.6185 10.2010
419 1 0.8918 18.7268 11.0928
420 1 2.6752 20.5102 11.0928
421 1 3.5670 17.8350 10.2010
422 1 3.5670 19.6185 11.9845
423 1 5.3505 17.8350 11.9845
424 1 5.3505 19.6185 10.2010
425 1 4.4588 18.7268 11.0928
426 1 6.2422 20.5102 11.0928
427 1 7.1340 17.8350 10.2010
428 1 7.1340 19.6185 11.9845
429 1 8.9175 17.8350 11.9845
430 1 8.9175 19.6185 10.2010
431 1 8.0258 18.7268 11.0928
432 1 9.8092 20.5102 11.0928
433 1 10.7010 17.8350 10.2010
434 1 10.7010 19.6185 11.9845
435 1 12.4845 17.8350 11.9845
436 1 12.4845 19.6185 10.2010
437 1 11.5928 18.7268 11.0928
438 1 13.3763 20.5102 11.0928
439 1 14.2680 17.8350 10.2010
440 1 14.2680 19.6185 11.9845
441 1 16.0515 17.8350 11.9845
442 1 16.0515 19.6185 10.2010
443 1 15.1598 18.7268 11.0928
444 1 16.9432 20.5102 11.0928
445 1 17.8350 17.8350 10.2010
446 1 17.8350 19.6185 11.9845
447 1 19.6185 17.8350 11.9845
448 1 19.6185 19.6185 10.2010
449 1 18.7268 18.7268 11.0928
450 1 20.5102 20.5102 11.0928
451 1 0.0000 21.4020 10.2010
452 1 0.0000 23.1855 11.9845
453 1 1.7835 21.4020 11.9845
454 1 1.7835 23.1855 10.2010
455 1 0.8918 22.2938 11.0928
456 1 2.6752 24.0772 11.0928
457 1 3.5670 21.4020 10.2010
458 1 3.5670 23.1855 11.9845
459 1 5.3505 21.4020 11.9845
460 1 5.3505 23.1855 10.2010
461 1 4.4588 22.2938 11.0928
462 1 6.2422 24.0772 11.0928
463 1 7.1340 21.4020 10.2010
464 1 7.1340 23.1855 11.9845
465 1 8.9175 21.4020 11.9845
466 1 8.9175 23.1855 10.2010
467 1 8.0258 22.2938 11.0928
468 1 9.8092 24.0772 11.0928
469 1 10.7010 21.4020 10.2010
470 1 10.7010 23.1855 11.9845
471 1 12.4845 21.4020 11.9845
472 1 12.4845 23.1855 10.2010
473 1 11.5928 22.2938 11.0928
474 1 13.3763 24.0772 11.0928
475 1 14.2680 21.4020 10.2010
476 1 14.2680 23.1855 11.9845
477 1 16.0515 21.4020 11.9845
478 1 16.0515 23.1855 10.2010
479 1 15.1598 22.2938 11.0928
480 1 16.9432 24.0772 11.0928
481 1 17.8350 21.4020 10.2010
482 1 17.8350 23.1855 11.9845
483 1 19.6185 21.4020 11.9845
484 1 19.6185 23.1855 10.2010
485 1 18.7268 22.2938 11.0928
486 1 20.5102 24.0772 11.0928
487 1 0.0000 24.9690 10.2010
488 1 0.0000 26.7525 11.9845
489 1 1.7835 24.9690 11.9845
490 1 1.7835 26.7525 10.2010
491 1 0.8918 25.8608 11.0928
492 1 2.6752 27.6442 11.0928
493 1 3.5670 24.9690 10.2010
494 1 3.5670 26.7525 11.9845
495 1 5.3505 24.9690 11.9845
496 1 5.3505 26.7525 10.2010
497 1 4.4588 25.8608 11.0928
498 1 6.2422 27.6442 11.0928
499 1 7.1340 24.9690 10.2010
500 1 7.1340 26.7525 11.9845
501 1 8.9175 24.9690 11.9845
502 1 8.9175 26.7525 10.2010
503 1 8.0258 25.8608 11.0928
504 1 9.8092 27.6442 11.0928
505 1 10.7010 24.9690 10.2010
506 1 10.7010 26.7525 11.9845
507 1 12.4845 24.9690 11.9845
508 1 12.4845 26.7525 10.2010
509 1 11.5928 25.8608 11.0928
510 1 13.3763 27.6442 11.0928
511 1 14.2680 24.9690 10.2010
512 1 14.2680 26.7525 11.9845
513 1 16.0515 24.9690 11.9845
514 1 16.0515 26.7525 10.2010
515 1 15.1598 25.8608 11.0928
516 1 16.9432 27.6442 11.0928
517 1 17.8350 24.9690 10.2010
518 1 17.8350 26.7525 11.9845
519 1 19.6185 24.9690 11.9845
520 1 19.6185 26.7525 10.2010
521 1 18.7268 25.8608 11.0928
522 1 20.5102 27.6442 11.0928
523 1 0.8918 2.6752 12.8762
524 1 2.6752 0.8918 12.8762
525 1 0.0000 0.0000 13.7680
526 1 0.0000 1.7835 15.5515
527 1 1.7835 0.0000 15.5515
528 1 1.7835 1.7835 13.7680
529 1 0.8918 0.8918 14.6598
530 1 2.6752 2.6752 14.6598
531 1 4.4588 2.6752 12.8762
532 1 6.2422 0.8918 12.8762
533 1 3.5670 0.0000 13.7680
534 1 3.5670 1.7835 15.5515
535 1 5.3505 0.0000 15.5515
536 1 5.3505 1.7835 13.7680
537 1 4.4588 0.8918 14.6598
538 1 6.2422 2.6752 14.6598
539 1 8.0258 2.6752 12.8762
540 1 9.8092 0.8918 12.8762
541 1 7.1340 0.0000 13.7680
542 1 7.1340 1.7835 15.5515
543 1 8.9175 0.0000 15.5515
544 1 8.9175 1.7835 13.7680
545 1 8.0258 0.8918 14.6598
546 1 9.8092 2.6752 14.6598
547 1 11.5928 2.6752 12.8762
548 1 13.3763 0.8918 12.8762
549 1 10.7010 0.0000 13.7680
550 1 10.7010 1.7835 15.5515
551 1 12.4845 0.0000 15.5515
552 1 12.4845 1.7835 13.7680
553 1 11.5928 0.8918 14.6598
554 1 13.3763 2.6752 14.6598
555 1 15.1598 2.6752 12.8762
556 1 16.9432 0.8918 12.8762
557 1 14.2680 0.0000 13.7680
558 1 14.2680 1.7835 15.5515
559 1 16.0515 0.0000 15.5515
560 1 16.0515 1.7835 13.7680
561 1 15.1598 0.8918 14.6598
562 1 16.9432 2.6752 14.6598
563 1 18.7268 2.6752 12.8762
564 1 20.5102 0.8918 12.8762
565 1 17.8350 0.0000 13.7680
566 1 17.8350 1.7835 15.5515
567 1 19.6185 0.0000 15.5515
568 1 19.6185 1.7835 13.7680
569 1 18.7268 0.8918 14.6598
570 1 20.5102 2.6752 14.6598
571 1 0.8918 6.2422 12.8762
572 1 2.6752 4.4588 12.8762
573 1 0.0000 3.5670 13.7680
574 1 0.0000 5.3505 15.5515
575 1 1.7835 3.5670 15.5515
576 1 1.7835 5.3505 13.7680
577 1 0.8918 4.4588 14.6598
578 1 2.6752 6.2422 14.6598
579 1 4.4588 6.2422 12.8762
580 1 6.2422 4.4588 12.8762
581 1 3.5670 3.5670 13.7680
582 1 3.5670 5.3505 15.5515
583 1 5.3505 3.5670 15.5515
584 1 5.3505 5.3505 13.7680
585 1 4.4588 4.4588 14.6598
586 1 6.2422 6.2422 14.6598
587 1 8.0258 6.2422 12.8762
588 1 9.8092 4.4588 12.8762
589 1 7.1340 3.5670 13.7680
590 1 7.1340 5.3505 15.5515
591 1 8.9175 3.5670 15.5515
592 1 8.9175 5.3505 13.7680
593 1 8.0258 4.4588 14.6598
594 1 9.8092 6.2422 14.6598
595 1 11.5928 6.2422 12.8762
596 1 13.3763 4.4588 12.8762
597 1 10.7010 3.5670 13.7680
598 1 10.7010 5.3505 15.5515
599 1 12.4845 3.5670 15.5515
600 1 12.4845 5.3505 13.7680
601 1 11.5928 4.4588 14.6598
602 1 13.3763 6.2422 14.6598
603 1 15.1598 6.2422 12.8762
604 1 16.9432 4.4588 12.8762
605 1 14.2680 3.5670 13.7680
606 1 14.2680 5.3505 15.5515
607 1 16.0515 3.5670 15.5515
608 1 16.0515 5.3505 13.7680
609 1 15.1598 4.4588 14.6598
610 1 16.9432 6.2422 14.6598
611 1 18.7268 6.2422 12.8762
612 1 20.5102 4.4588 12.8762
613 1 17.8350 3.5670 13.7680
614 1 17.8350 5.3505 15.5515
615 1 19.6185 3.5670 15.5515
616 1 19.6185 5.3505 13.7680
617 1 18.7268 4.4588 14.6598
618 1 20.5102 6.2422 14.6598
619 1 0.8918 9.8092 12.8762
620 1 2.6752 8.0258 12.8762
621 1 0.0000 7.1340 13.7680
622 1 0.0000 8.9175 15.5515
623 1 1.7835 7.1340 15.5515
624 1 1.7835 8.9175 13.7680
625 1 0.8918 8.0258 14.6598
626 1 2.6752 9.8092 14.6598
627 1 4.4588 9.8092 12.8762
628 1 6.2422 8.0258 12.8762
629 1 3.5670 7.1340 13.7680
630 1 3.5670 8.9175 15.5515
631 1 5.3505 7.1340 15.5515
632 1 5.3505 8.9175 13.7680
633 1 4.4588 8.0258 14.6598
634 1 6.2422 9.8092 14.6598
635 1 8.0258 9.8092 12.8762
636 1 9.8092 8.0258 12.8762
637 1 7.1340 7.1340 13.7680
638 1 7.1340 8.9175 15.5515
639 1 8.9175 7.1340 15.5515
640 1 8.9175 8.9175 13.7680
641 1 8.0258 8.0258 14.6598
642 1 9.8092 9.8092 14.6598
643 1 11.5928 9.8092 12.8762
644 1 13.3763 8.0258 12.8762
645 1 10.7010 7.1340 13.7680
646 1 10.7010 8.9175 15.5515
647 1 12.4845 7.1340 15.5515
648 1 12.4845 8.9175 13.7680
649 1 11.5928 8.0258 14.6598
650 1 13.3763 9.8092 14.6598
651 1 15.1598 9.8092 12.8762
652 1 16.9432 8.0258 12.8762
653 1 14.2680 7.1340 13.7680
654 1 14.2680 8.9175 15.5515
655 1 16.0515 7.1340 15.5515
656 1 16.0515 8.9175 13.7680
657 1 15.1598 8.0258 14.6598
658 1 16.9432 9.8092 14.6598
659 1 18.7268 9.8092 12.8762
660 1 20.5102 8.0258 12.8762
661 1 17.8350 7.1340 13.7680
662 1 17.8350 8.9175 15.5515
663 1 19.6185 7.1340 15.5515
664 1 19.6185 8.9175 13.7680
665 1 18.7268 8.0258 14.6598
666 1 20.5102 9.8092 14.6598
667 1 0.8918 13.3763 12.8762
668 1 2.6752 11.5928 12.8762
669 1 0.0000 10.7010 13.7680
670 1 0.0000 12.4845 15.5515
671 1 1.7835 10.7010 15.5515
672 1 1.7835 12.4845 13.7680
673 1 0.8918 11.5928 14.6598
674 1 2.6752 13.3763 14.6598
675 1 4.4588 13.3763 12.8762
676 1 6.2422 11.5928 12.8762
677 1 3.5670 10.7010 13.7680
678 1 3.5670 12.4845 15.5515
679 1 5.3505 10.7010 15.5515
680 1 5.3505 12.4845 13.7680
681 1 4.4588 11.5928 14.6598
682 1 6.2422 13.3763 14.6598
683 1 8.0258 13.3763 12.8762
684 1 9.8092 11.5928 12.8762
685 1 7.1340 10.7010 13.7680
686 1 7.1340 12.4845 15.5515
687 1 8.9175 10.7010 15.5515
688 1 8.9175 12.4845 13.7680
689 1 8.0258 11.5928 14.6598
690 1 9.8092 13.3763 14.6598
691 1 11.5928 13.3763 12.8762
692 1 13.3763 11.5928 12.8762
693 1 10.7010 10.7010 13.7680
694 1 10.7010 12.4845 15.5515
695 1 12.4845 10.7010 15.5515
696 1 12.4845 12.4845 13.7680
697 1 11.5928 11.5928 14.6598
698 1 13.3763 13.3763 14.6598
699 1 15.1598 13.3763 12.8762
700 1 16.9432 11.5928 12.8762
701 1 14.2680 10.7010 13.7680
702 1 14.2680 12.4845 15.5515
703 1 16.0515 10.7010 15.5515
704 1 16.0515 12.4845 13.7680
705 1 15.1598 11.5928 14.6598
706 1 16.9432 13.3763 14.6598
707 1 18.7268 13.3763 12.8762
708 1 20.5102 11.5928 12.8762
709 1 17.8350 10.7010 13.7680
710 1 17.8350 12.4845 15.5515
711 1 19.6185 10.7010 15.5515
712 1 19.6185 12.4845 13.7680
713 1 18.7268 11.5928 14.6598
714 1 20.5102 13.3763 14.6598
715 1 0.8918 16.9432 12.8762
716 1 2.6752 15.1598 12.8762
717 1 0.0000 14.2680 13.7680
718 1 0.0000 16.0515 15.5515
719 1 1.7835 14.2680 15.5515
720 1 1.7835 16.0515 13.7680
721 1 0.8918 15.1598 14.6598
722 1 2.6752 16.9432 14.6598
723 1 4.4588 16.9432 12.8762
724 1 6.2422 15.1598 12.8762
725 1 3.5670 14.2680 13.7680
726 1 3.5670 16.0515 15.5515
727 1 5.3505 14.2680 15.5515
728 1 5.3505 16.0515 13.7680
729 1 4.4588 15.1598 14.6598
730 1 6.2422 16.9432 14.6598
731 1 8.0258 16.9432 12.8762
732 1 9.8092 15.1598 12.8762
733 1 7.1340 14.2680 13.7680
734 1 7.1340 16.0515 15.5515
735 1 8.9175 14.2680 15.5515
736 1 8.9175 16.0515 13.7680
737 1 8.0258 15.1598 14.6598
738 1 9.8092 16.9432 14.6598
739 1 11.5928 16.9432 12.8762
740 1 13.3763 15.1598 12.8762
741 1 10.7010 14.2680 13.7680
742 1 10.7010 16.0515 15.5515
743 1 12.4845 14.2680 15.5515
744 1 12.4845 16.0515 13.7680
745 1 11.5928 15.1598 14.6598
746 1 13.3763 16.9432 14.6598
747 1 15.1598 16.9432 12.8762
748 1 16.9432 15.1598 12.8762
749 1 14.2680 14.2680 13.7680
750 1 14.2680 16.0515 15.5515
751 1 16.0515 14.2680 15.5515
752 1 16.0515 16.0515 13.7680
753 1 15.1598 15.1598 14.6598
754 1 16.9432 16.9432 14.6598
755 1 18.7268 16.9432 12.8762
756 1 20.5102 15.1598 12.8762
757 1 17.8350 14.2680 13.7680
758 1 17.8350 16.0515 15.5515
759 1 19.6185 14.2680 15.5515
760 1 19.6185 16.0515 13.7680
761 1 18.7268 15.1598 14.6598
762 1 20.5102 16.9432 14.6598
763 1 0.8918 20.5102 12.8762
764 1 2.6752 18.7268 12.8762
765 1 0.0000 17.8350 13.7680
766 1 0.0000 19.6185 15.5515
767 1 1.7835 17.8350 15.5515
768 1 1.7835 19.6185 13.7680
769 1 0.8918 18.7268 14.6598
770 1 2.6752 20.5102 14.6598
771 1 4.4588 20.5102 12.8762
772 1 6.2422 18.7268 12.8762
773 1 3.5670 17.8350 13.7680
774 1 3.5670 19.6185 15.5515
775 1 5.3505 17.8350 15.5515
776 1 5.3505 19.6185 13.7680
777 1 4.4588 18.7268 14.6598
778 1 6.2422 20.5102 14.6598
779 1 8.0258 20.5102 12.8762
780 1 9.8092 18.7268 12.8762
781 1 7.1340 17.8350 13.7680
782 1 7.1340 19.6185 15.5515
783 1 8.9175 17.8350 15.5515
784 1 8.9175 19.6185 13.7680
785 1 8.0258 18.7268 14.6598
786 1 9.8092 20.5102 14.6598
787 1 11.5928 20.5102 12.8762
788 1 13.3763 18.7268 12.8762
789 1 10.7010 17.8350 13.7680
790 1 10.7010 19.6185 15.5515
791 1 12.4845 17.8350 15.5515
792 1 12.4845 19.6185 13.7680
793 1 11.5928 18.7268 14.6598
794 1 13.3763 20.5102 14.6598
795 1 15.1598 20.5102 12.8762
796 1 16.9432 18.7268 12.8762
797 1 14.2680 17.8350 13.7680
798 1 14.2680 19.6185 15.5515
799 1 16.0515 17.8350 15.5515
800 1 16.0515 19.6185 13.7680
801 1 15.1598 18.7268 14.6598
802 1 16.9432 20.5102 14.6598
803 1 18.7268 20.5102 12.8762
804 1 20.5102 18.7268 12.8762
805 1 17.8350 17.8350 13.7680
806 1 17.8350 19.6185 15.5515
807 1 19.6185 17.8350 15.5515
808 1 19.6185 19.6185 13.7680
809 1 18.7268 18.7268 14.6598
810 1 20.5102 20.5102 14.6598
811 1 0.8918 24.0772 12.8762
812 1 2.6752 22.2938 12.8762
813 1 0.0000 21.4020 13.7680
814 1 0.0000 23.1855 15.5515
815 1 1.7835 21.4020 15.5515
816 1 1.7835 23.1855 13.7680
817 1 0.8918 22.2938 14.6598
818 1 2.6752 24.0772 14.6598
819 1 4.4588 24.0772 12.8762
820 1 6.2422 22.2938 12.8762
821 1 3.5670 21.4020 13.7680
822 1 3.5670 23.1855 15.5515
823 1 5.3505 21.4020 15.5515
824 1 5.3505 23.1855 13.7680
825 1 4.4588 22.2938 14.6598
826 1 6.2422 24.0772 14.6598
827 1 8.0258 24.0772 12.8762
828 1 9.8092 22.2938 12.8762
829 1 7.1340 21.4020 13.7680
830 1 7.1340 23.1855 15.5515
831 1 8.9175 21.4020 15.5515
832 1 8.9175 23.1855 13.7680
833 1 8.0258 22.2938 14.6598
834 1 9.8092 24.0772 14.6598
835 1 11.5928 24.0772 12.8762
836 1 13.3763 22.2938 12.8762
837 1 10.7010 21.4020 13.7680
838 1 10.7010 23.1855 15.5515
839 1 12.4845 21.4020 15.5515
840 1 12.4845 23.1855 13.7680
841 1 11.5928 22.2938 14.6598
842 1 13.3763 24.0772 14.6598
843 1 15.1598 24.0772 12.8762
844 1 16.9432 22.2938 12.8762
845 1 14.2680 21.4020 13.7680
846 1 14.2680 23.1855 15.5515
847 1 16.0515 21.4020 15.5515
848 1 16.0515 23.1855 13.7680
849 1 15.1598 22.2938 14.6598
850 1 16.9432 24.0772 14.6598
851 1 18.7268 24.0772 12.8762
852 1 20.5102 22.2938 12.8762
853 1 17.8350 21.4020 13.7680
854 1 17.8350 23.1855 15.5515
855 1 19.6185 21.4020 15.5515
856 1 19.6185 23.1855 13.7680
857 1 18.7268 22.2938 14.6598
858 1 20.5102 24.0772 14.6598
859 1 0.8918 27.6442 12.8762
860 1 2.6752 25.8608 12.8762
861 1 0.0000 24.9690 13.7680
862 1 0.0000 26.7525 15.5515
863 1 1.7835 24.9690 15.5515
864 1 1.7835 26.7525 13.7680
865 1 0.8918 25.8608 14.6598
866 1 2.6752 27.6442 14.6598
867 1 4.4588 27.6442 12.8762
868 1 6.2422 25.8608 12.8762
869 1 3.5670 24.9690 13.7680
870 1 3.5670 26.7525 15.5515
871 1 5.3505 24.9690 15.5515
872 1 5.3505 26.7525 13.7680
873 1 4.4588 25.8608 14.6598
874 1 6.2422 27.6442 14.6598
875 1 8.0258 27.6442 12.8762
876 1 9.8092 25.8608 12.8762
877 1 7.1340 24.9690 13.7680
878 1 7.1340 26.7525 15.5515
879 1 8.9175 24.9690 15.5515
880 1 8.9175 26.7525 13.7680
881 1 8.0258 25.8608 14.6598
882 1 9.8092 27.6442 14.6598
883 1 11.5928 27.6442 12.8762
884 1 13.3763 25.8608 12.8762
885 1 10.7010 24.9690 13.7680
886 1 10.7010 26.7525 15.5515
887 1 12.4845 24.9690 15.5515
888 1 12.4845 26.7525 13.7680
889 1 11.5928 25.8608 14.6598
890 1 13.3763 27.6442 14.6598
891 1 15.1598 27.6442 12.8762
892 1 16.9432 25.8608 12.8762
893 1 14.2680 24.9690 13.7680
894 1 14.2680 26.7525 15.5515
895 1 16.0515 24.9690 15.5515
896 1 16.0515 26.7525 13.7680
897 1 15.1598 25.8608 14.6598
898 1 16.9432 27.6442 14.6598
899 1 18.7268 27.6442 12.8762
900 1 20.5102 25.8608 12.8762
901 1 17.8350 24.9690 13.7680
902 1 17.8350 26.7525 15.5515
903 1 19.6185 24.9690 15.5515
904 1 19.6185 26.7525 13.7680
905 1 18.7268 25.8608 14.6598
906 1 20.5102 27.6442 14.6598
907 1 0.8918 2.6752 16.4432
908 1 2.6752 0.8918 16.4432
909 1 0.0000 0.0000 17.3350
910 1 1.7835 1.7835 17.3350
911 1 0.8918 0.8918 18.2268
912 1 2.6752 2.6752 18.2268
913 1 4.4588 2.6752 16.4432
914 1 6.2422 0.8918 16.4432
915 1 3.5670 0.0000 17.3350
916 1 5.3505 1.7835 17.3350
917 1 4.4588 0.8918 18.2268
918 1 6.2422 2.6752 18.2268
919 1 8.0258 2.6752 16.4432
920 1 9.8092 0.8918 16.4432
921 1 7.1340 0.0000 17.3350
922 1 8.9175 1.7835 17.3350
923 1 8.0258 0.8918 18.2268
924 1 9.8092 2.6752 18.2268
925 1 11.5928 2.6752 16.4432
926 1 13.3763 0.8918 16.4432
927 1 10.7010 0.0000 17.3350
928 1 12.4845 1.7835 17.3350
929 1 11.5928 0.8918 18.2268
930 1 13.3763 2.6752 18.2268
931 1 15.1598 2.6752 16.4432
932 1 16.9432 0.8918 16.4432
933 1 14.2680 0.0000 17.3350
934 1 16.0515 1.7835 17.3350
935 1 15.1598 0.8918 18.2268
936 1 16.9432 2.6752 18.2268
937 1 18.7268 2.6752 16.4432
938 1 20.5102 0.8918 16.4432
939 1 17.8350 0.0000 17.3350
940 1 19.6185 1.7835 17.3350
941 1 18.7268 0.8918 18.2268
942 1 20.5102 2.6752 18.2268
943 1 0.8918 6.2422 16.4432
944 1 2.6752 4.4588 16.4432
945 1 0.0000 3.5670 17.3350
946 1 1.7835 5.3505 17.3350
947 1 0.8918 4.4588 18.2268
948 1 2.6752 6.2422 18.2268
949 1 4.4588 6.2422 16.4432
950 1 6.2422 4.4588 16.4432
951 1 3.5670 3.5670 17.3350
952 1 5.3505 5.3505 17.3350
953 1 4.4588 4.4588 18.2268
954 1 6.2422 6.2422 18.2268
955 1 8.0258 6.2422 16.4432
956 1 9.8092 4.4588 16.4432
957 1 7.1340 3.5670 17.3350
958 1 8.9175 5.3505 17.3350
959 1 8.0258 4.4588 18.2268
960 1 9.8092 6.2422 18.2268
961 1 11.5928 6.2422 16.4432
962 1 13.3763 4.4588 16.4432
963 1 10.7010 3.5670 17.3350
964 1 12.4845 5.3505 17.3350
965 1 11.5928 4.4588 18.2268
966 1 13.3763 6.2422 18.2268
967 1 15.1598 6.2422 16.4432
968 1 16.9432 4.4588 16.4432
969 1 14.2680 3.5670 17.3350
970 1 16.0515 5.3505 17.3350
971 1 15.1598 4.4588 18.2268
972 1 16.9432 6.2422 18.2268
973 1 18.7268 6.2422 16.4432
974 1 20.5102 4.4588 16.4432
975 1 17.8350 3.5670 17.3350
976 1 19.6185 5.3505 17.3350
977 1 18.7268 4.4588 18.2268
978 1 20.5102 6.2422 18.2268
979 1 0.8918 9.8092 16.4432
980 1 2.6752 8.0258 16.4432
981 1 0.0000 7.1340 17.3350
982 1 1.7835 8.9175 17.3350
983 1 0.8918 8.0258 18.2268
984 1 2.6752 9.8092 18.2268
985 1 4.4588 9.8092 16.4432
986 1 6.2422 8.0258 16.4432
987 1 3.5670 7.1340 17.3350
988 1 5.3505 8.9175 17.3350
989 1 4.4588 8.0258 18.2268
990 1 6.2422 9.8092 18.2268
991 1 8.0258 9.8092 16.4432
992 1 9.8092 8.0258 16.4432
993 1 7.1340 7.1340 17.3350
994 1 8.9175 8.9175 17.3350
995 1 8.0258 8.0258 18.2268
996 1 9.8092 9.8092 18.2268
997 1 11.5928 9.8092 16.4432
998 1 13.3763 8.0258 16.4432
999 1 10.7010 7.1340 17.3350
1000 1 12.4845 8.9175 17.3350
1001 1 11.5928 8.0258 18.2268
1002 1 13.3763 9.8092 18.2268
1003 1 15.1598 9.8092 16.4432
1004 1 16.9432 8.0258 16.4432
1005 1 14.2680 7.1340 17.3350
1006 1 16.0515 8.9175 17.3350
1007 1 15.1598 8.0258 18.2268
1008 1 16.9432 9.8092 18.2268
1009 1 18.7268 9.8092 16.4432
1010 1 20.5102 8.0258 16.4432
1011 1 17.8350 7.1340 17.3350
1012 1 19.6185 8.9175 17.3350
1013 1 18.7268 8.0258 18.2268
1014 1 20.5102 9.8092 18.2268
1015 1 0.8918 13.3763 16.4432
1016 1 2.6752 11.5928 16.4432
1017 1 0.0000 10.7010 17.3350
1018 1 1.7835 12.4845 17.3350
1019 1 0.8918 11.5928 18.2268
1020 1 2.6752 13.3763 18.2268
1021 1 4.4588 13.3763 16.4432
1022 1 6.2422 11.5928 16.4432
1023 1 3.5670 10.7010 17.3350
1024 1 5.3505 12.4845 17.3350
1025 1 4.4588 11.5928 18.2268
1026 1 6.2422 13.3763 18.2268
1027 1 8.0258 13.3763 16.4432
1028 1 9.8092 11.5928 16.4432
1029 1 7.1340 10.7010 17.3350
1030 1 8.9175 12.4845 17.3350
1031 1 8.0258 11.5928 18.2268
1032 1 9.8092 13.3763 18.2268
1033 1 11.5928 13.3763 16.4432
1034 1 13.3763 11.5928 16.4432
1035 1 10.7010 10.7010 17.3350
1036 1 12.4845 12.4845 17.3350
1037 1 11.5928 11.5928 18.2268
1038 1 13.3763 13.3763 18.2268
1039 1 15.1598 13.3763 16.4432