LAMMPS data file from restart file: timestep = 1, procs = 1

1074 atoms

3 atom types

0.0000 20.3798 xlo xhi
0.0000 28.0223 ylo yhi
-50 71.34 zlo zhi

Masses

1 12.01
2 2
3 3

Atoms

1 1 17.6559 0.0001 0.0000
2 1 20.1780 0.0001 0.0000
3 1 20.1780 2.5223 0.0000
4 1 12.6113 0.0000 0.0000
5 1 15.1335 0.0001 0.0000
6 1 15.1336 2.5223 0.0000
7 1 17.6558 2.5224 0.0000
8 1 17.6558 5.0445 0.0000
9 1 20.1780 5.0446 0.0000
10 1 20.1780 7.5668 0.0000
11 1 10.0891 0.0001 0.0000
12 1 12.6113 2.5224 0.0000
13 1 15.1335 5.0446 0.0000
14 1 17.6558 7.5669 0.0000
15 1 20.1780 10.0891 0.0000
16 1 7.5667 0.0001 0.0000
17 1 5.0446 0.0001 0.0000
18 1 10.0890 2.5223 0.0000
19 1 7.5668 2.5224 0.0000
20 1 12.6113 5.0446 0.0000
21 1 10.0891 5.0446 0.0000
22 1 15.1335 7.5668 0.0000
23 1 12.6113 7.5669 0.0000
24 1 17.6557 10.0891 0.0000
25 1 15.1335 10.0891 0.0000
26 1 20.1780 12.6113 0.0000
27 1 17.6558 12.6114 0.0000
28 1 20.1780 15.1336 0.0000
29 1 2.5223 0.0000 0.0000
30 1 0.0001 0.0001 0.0000
31 1 5.0446 2.5223 0.0000
32 1 2.5223 2.5224 0.0000
33 1 7.5668 5.0445 0.0000
34 1 5.0446 5.0446 0.0000
35 1 10.0891 7.5668 0.0000
36 1 7.5668 7.5669 0.0000
37 1 12.6113 10.0890 0.0000
38 1 10.0891 10.0891 0.0000
39 1 15.1335 12.6113 0.0000
40 1 12.6113 12.6114 0.0000
41 1 17.6558 15.1335 0.0000
42 1 15.1335 15.1336 0.0000
43 1 20.1780 17.6558 0.0000
44 1 17.6558 17.6559 0.0000
45 1 20.1780 20.1781 0.0000
46 1 0.0001 2.5223 0.0000
47 1 2.5223 5.0445 0.0000
48 1 0.0001 5.0446 0.0000
49 1 5.0446 7.5668 0.0000
50 1 2.5223 7.5669 0.0000
51 1 7.5669 10.0891 0.0000
52 1 5.0446 10.0891 0.0000
53 1 10.0891 12.6113 0.0000
54 1 7.5668 12.6114 0.0000
55 1 12.6113 15.1335 0.0000
56 1 10.0891 15.1336 0.0000
57 1 15.1335 17.6558 0.0000
58 1 12.6113 17.6559 0.0000
59 1 17.6558 20.1780 0.0000
60 1 15.1335 20.1781 0.0000
61 1 20.1780 22.7003 0.0000
62 1 17.6558 22.7004 0.0000
63 1 20.1780 25.2226 0.0000
64 1 0.0001 7.5668 0.0000
65 1 2.5223 10.0890 0.0000
66 1 0.0001 10.0891 0.0000
67 1 5.0446 12.6113 0.0000
68 1 2.5223 12.6114 0.0000
69 1 7.5668 15.1335 0.0000
70 1 5.0446 15.1336 0.0000
71 1 10.0891 17.6558 0.0000
72 1 7.5668 17.6559 0.0000
73 1 12.6113 20.1780 0.0000
74 1 10.0891 20.1781 0.0000
75 1 15.1335 22.7003 0.0000
76 1 12.6113 22.7004 0.0000
77 1 17.6558 25.2225 0.0000
78 1 15.1335 25.2226 0.0000
79 1 20.1780 27.7448 0.0000
80 1 17.6558 27.7449 0.0000
81 1 0.0001 12.6113 0.0000
82 1 2.5224 15.1336 0.0000
83 1 0.0001 15.1336 0.0000
84 1 5.0446 17.6558 0.0000
85 1 2.5223 17.6559 0.0000
86 1 7.5668 20.1780 0.0000
87 1 5.0446 20.1781 0.0000
88 1 10.0891 22.7003 0.0000
89 1 7.5668 22.7004 0.0000
90 1 12.6113 25.2225 0.0000
91 1 10.0891 25.2226 0.0000
92 1 15.1335 27.7448 0.0000
93 1 12.6113 27.7449 0.0000
94 1 0.0001 17.6558 0.0000
95 1 2.5223 20.1780 0.0000
96 1 5.0446 22.7003 0.0000
97 1 7.5668 25.2225 0.0000
98 1 10.0891 27.7448 0.0000
99 1 0.0001 20.1781 0.0000
100 1 0.0001 22.7003 0.0000
101 1 2.5223 22.7004 0.0000
102 1 2.5223 25.2225 0.0000
103 1 5.0446 25.2226 0.0000
104 1 5.0446 27.7448 0.0000
105 1 7.5668 27.7449 0.0000
106 1 0.0001 25.2226 0.0000
107 1 0.0000 27.7448 0.0000
108 1 2.5223 27.7449 0.0000
109 1 17.6559 0.0001 3.5670
110 1 18.9169 0.0001 0.8917
111 1 18.9170 1.2612 1.7834
112 1 20.1780 1.2612 2.6752
113 1 20.1780 0.0001 3.5670
114 1 20.1780 2.5223 3.5670
115 1 12.6113 0.0000 3.5670
116 1 13.8724 0.0001 0.8917
117 1 16.3947 0.0001 0.8917
118 1 13.8725 1.2612 1.7834
119 1 16.3947 1.2613 1.7834
120 1 15.1335 1.2612 2.6752
121 1 15.1335 0.0001 3.5670
122 1 15.1336 2.5223 3.5670
123 1 16.3947 2.5223 0.8917
124 1 18.9169 2.5223 0.8917
125 1 16.3947 3.7834 1.7834
126 1 18.9169 3.7834 1.7834
127 1 17.6558 1.2612 2.6752
128 1 17.6558 3.7834 2.6752
129 1 17.6558 2.5224 3.5670
130 1 17.6558 5.0445 3.5670
131 1 18.9169 5.0446 0.8917
132 1 18.9170 6.3057 1.7834
133 1 20.1780 3.7834 2.6752
134 1 20.1780 6.3057 2.6752
135 1 20.1780 5.0446 3.5670
136 1 20.1780 7.5668 3.5670
137 1 8.8279 0.0001 0.8917
138 1 11.3502 0.0001 0.8917
139 1 11.3501 1.2612 1.7834
140 1 10.0891 1.2612 2.6752
141 1 10.0891 0.0001 3.5670
142 1 11.3502 2.5223 0.8917
143 1 13.8724 2.5223 0.8917
144 1 13.8724 3.7835 1.7834
145 1 12.6113 1.2612 2.6752
146 1 12.6113 3.7834 2.6752
147 1 12.6113 2.5224 3.5670
148 1 13.8724 5.0446 0.8917
149 1 16.3947 5.0446 0.8917
150 1 16.3946 6.3057 1.7834
151 1 15.1335 3.7834 2.6752
152 1 15.1335 6.3057 2.6752
153 1 15.1335 5.0446 3.5670
154 1 16.3947 7.5668 0.8917
155 1 18.9169 7.5668 0.8917
156 1 18.9169 8.8279 1.7834
157 1 17.6558 6.3057 2.6752
158 1 17.6558 8.8279 2.6752
159 1 17.6558 7.5669 3.5670
160 1 18.9169 10.0891 0.8917
161 1 20.1780 8.8279 2.6752
162 1 20.1780 11.3502 2.6752
163 1 20.1780 10.0891 3.5670
164 1 7.5667 0.0001 3.5670
165 1 3.7834 0.0001 0.8917
166 1 6.3057 0.0001 0.8917
167 1 6.3056 1.2612 1.7834
168 1 5.0446 1.2612 2.6752
169 1 5.0446 0.0001 3.5670
170 1 8.8279 1.2613 1.7834
171 1 10.0890 2.5223 3.5670
172 1 6.3057 2.5223 0.8917
173 1 8.8279 2.5223 0.8917
174 1 8.8279 3.7834 1.7834
175 1 7.5668 1.2612 2.6752
176 1 7.5668 3.7834 2.6752
177 1 7.5668 2.5224 3.5670
178 1 11.3502 3.7835 1.7834
179 1 12.6113 5.0446 3.5670
180 1 8.8279 5.0446 0.8917
181 1 11.3502 5.0446 0.8917
182 1 11.3502 6.3058 1.7834
183 1 10.0891 3.7834 2.6752
184 1 10.0891 6.3057 2.6752
185 1 10.0891 5.0446 3.5670
186 1 13.8724 6.3058 1.7834
187 1 15.1335 7.5668 3.5670
188 1 11.3502 7.5668 0.8917
189 1 13.8724 7.5668 0.8917
190 1 13.8724 8.8279 1.7834
191 1 12.6113 6.3057 2.6752
192 1 12.6113 8.8279 2.6752
193 1 12.6113 7.5669 3.5670
194 1 16.3947 8.8280 1.7834
195 1 17.6557 10.0891 3.5670
196 1 13.8724 10.0891 0.8917
197 1 16.3947 10.0891 0.8917
198 1 16.3946 11.3502 1.7834
199 1 15.1335 8.8279 2.6752
200 1 15.1335 11.3502 2.6752
201 1 15.1335 10.0891 3.5670
202 1 18.9169 11.3503 1.7834
203 1 20.1780 12.6113 3.5670
204 1 16.3947 12.6113 0.8917
205 1 18.9169 12.6113 0.8917
206 1 18.9169 13.8724 1.7834
207 1 17.6558 11.3502 2.6752
208 1 17.6558 13.8724 2.6752
209 1 17.6558 12.6114 3.5670
210 1 18.9169 15.1336 0.8917
211 1 20.1780 13.8724 2.6752
212 1 20.1780 16.3947 2.6752
213 1 20.1780 15.1336 3.5670
214 1 2.5223 0.0000 3.5670
215 1 1.2612 0.0001 0.8917
216 1 1.2611 1.2612 1.7834
217 1 0.0001 1.2612 2.6752
218 1 0.0001 0.0001 3.5670
219 1 3.7835 1.2612 1.7834
220 1 5.0446 2.5223 3.5670
221 1 1.2612 2.5223 0.8917
222 1 3.7834 2.5223 0.8917
223 1 3.7834 3.7834 1.7834
224 1 2.5223 1.2612 2.6752
225 1 2.5223 3.7834 2.6752
226 1 2.5223 2.5224 3.5670
227 1 6.3057 3.7834 1.7834
228 1 7.5668 5.0445 3.5670
229 1 3.7834 5.0446 0.8917
230 1 6.3057 5.0446 0.8917
231 1 6.3056 6.3057 1.7834
232 1 5.0446 3.7834 2.6752
233 1 5.0446 6.3057 2.6752
234 1 5.0446 5.0446 3.5670
235 1 8.8280 6.3057 1.7834
236 1 10.0891 7.5668 3.5670
237 1 6.3057 7.5668 0.8917
238 1 8.8279 7.5668 0.8917
239 1 8.8279 8.8280 1.7834
240 1 7.5668 6.3057 2.6752
241 1 7.5668 8.8279 2.6752
242 1 7.5668 7.5669 3.5670
243 1 11.3502 8.8279 1.7834
244 1 12.6113 10.0890 3.5670
245 1 8.8279 10.0891 0.8917
246 1 11.3502 10.0891 0.8917
247 1 11.3501 11.3502 1.7834
248 1 10.0891 8.8279 2.6752
249 1 10.0891 11.3502 2.6752
250 1 10.0891 10.0891 3.5670
251 1 13.8725 11.3502 1.7834
252 1 15.1335 12.6113 3.5670
253 1 11.3502 12.6113 0.8917
254 1 13.8724 12.6113 0.8917
255 1 13.8724 13.8724 1.7834
256 1 12.6113 11.3502 2.6752
257 1 12.6113 13.8724 2.6752
258 1 12.6113 12.6114 3.5670
259 1 16.3947 13.8724 1.7834
260 1 17.6558 15.1335 3.5670
261 1 13.8724 15.1336 0.8917
262 1 16.3947 15.1336 0.8917
263 1 16.3946 16.3947 1.7834
264 1 15.1335 13.8724 2.6752
265 1 15.1335 16.3947 2.6752
266 1 15.1335 15.1336 3.5670
267 1 18.9170 16.3947 1.7834
268 1 20.1780 17.6558 3.5670
269 1 16.3947 17.6558 0.8917
270 1 18.9169 17.6558 0.8917
271 1 18.9169 18.9169 1.7834
272 1 17.6558 16.3947 2.6752
273 1 17.6558 18.9169 2.6752
274 1 17.6558 17.6559 3.5670
275 1 18.9169 20.1781 0.8917
276 1 20.1780 18.9169 2.6752
277 1 20.1780 21.4392 2.6752
278 1 20.1780 20.1781 3.5670
279 1 0.0001 2.5223 3.5670
280 1 1.2612 3.7834 1.7834
281 1 2.5223 5.0445 3.5670
282 1 1.2612 5.0446 0.8917
283 1 1.2611 6.3057 1.7834
284 1 0.0001 3.7834 2.6752
285 1 0.0001 5.0446 3.5670
286 1 3.7835 6.3057 1.7834
287 1 5.0446 7.5668 3.5670
288 1 3.7834 7.5668 0.8917
289 1 3.7834 8.8279 1.7834
290 1 2.5223 6.3057 2.6752
291 1 2.5223 7.5669 3.5670
292 1 6.3057 8.8279 1.7834
293 1 7.5669 10.0891 3.5670
294 1 6.3057 10.0891 0.8917
295 1 6.3057 11.3503 1.7834
296 1 5.0446 8.8279 2.6752
297 1 5.0446 10.0891 3.5670
298 1 8.8280 11.3502 1.7834
299 1 10.0891 12.6113 3.5670
300 1 8.8279 12.6113 0.8917
301 1 8.8279 13.8724 1.7834
302 1 7.5668 11.3502 2.6752
303 1 7.5668 12.6114 3.5670
304 1 11.3502 13.8724 1.7834
305 1 12.6113 15.1335 3.5670
306 1 11.3502 15.1336 0.8917
307 1 11.3501 16.3947 1.7834
308 1 10.0891 13.8724 2.6752
309 1 10.0891 15.1336 3.5670
310 1 13.8725 16.3947 1.7834
311 1 15.1335 17.6558 3.5670
312 1 13.8724 17.6558 0.8917
313 1 13.8724 18.9169 1.7834
314 1 12.6113 16.3947 2.6752
315 1 12.6113 17.6559 3.5670
316 1 16.3947 18.9169 1.7834
317 1 17.6558 20.1780 3.5670
318 1 16.3947 20.1781 0.8917
319 1 16.3946 21.4392 1.7834
320 1 15.1335 18.9169 2.6752
321 1 15.1335 20.1781 3.5670
322 1 18.9170 21.4392 1.7834
323 1 20.1780 22.7003 3.5670
324 1 18.9169 22.7003 0.8917
325 1 18.9169 23.9614 1.7834
326 1 17.6558 21.4392 2.6752
327 1 17.6558 22.7004 3.5670
328 1 20.1780 23.9614 2.6752
329 1 20.1780 25.2226 3.5670
330 1 0.0001 6.3057 2.6752
331 1 0.0001 7.5668 3.5670
332 1 1.2612 7.5668 0.8917
333 1 1.2612 8.8279 1.7834
334 1 2.5223 8.8279 2.6752
335 1 2.5223 10.0890 3.5670
336 1 1.2612 10.0891 0.8917
337 1 1.2611 11.3502 1.7834
338 1 0.0001 8.8279 2.6752
339 1 0.0001 10.0891 3.5670
340 1 3.7834 10.0891 0.8917
341 1 3.7835 11.3502 1.7834
342 1 5.0446 11.3502 2.6752
343 1 5.0446 12.6113 3.5670
344 1 3.7834 12.6113 0.8917
345 1 3.7834 13.8725 1.7834
346 1 2.5223 11.3502 2.6752
347 1 2.5223 12.6114 3.5670
348 1 6.3057 12.6113 0.8917
349 1 6.3057 13.8724 1.7834
350 1 7.5668 13.8724 2.6752
351 1 7.5668 15.1335 3.5670
352 1 6.3057 15.1336 0.8917
353 1 6.3056 16.3947 1.7834
354 1 5.0446 13.8724 2.6752
355 1 5.0446 15.1336 3.5670
356 1 8.8279 15.1336 0.8917
357 1 8.8280 16.3947 1.7834
358 1 10.0891 16.3947 2.6752
359 1 10.0891 17.6558 3.5670
360 1 8.8279 17.6558 0.8917
361 1 8.8279 18.9169 1.7834
362 1 7.5668 16.3947 2.6752
363 1 7.5668 17.6559 3.5670
364 1 11.3502 17.6558 0.8917
365 1 11.3502 18.9169 1.7834
366 1 12.6113 18.9169 2.6752
367 1 12.6113 20.1780 3.5670
368 1 11.3502 20.1781 0.8917
369 1 11.3501 21.4392 1.7834
370 1 10.0891 18.9169 2.6752
371 1 10.0891 20.1781 3.5670
372 1 13.8724 20.1781 0.8917
373 1 13.8725 21.4392 1.7834
374 1 15.1335 21.4392 2.6752
375 1 15.1335 22.7003 3.5670
376 1 13.8724 22.7003 0.8917
377 1 13.8724 23.9614 1.7834
378 1 12.6113 21.4392 2.6752
379 1 12.6113 22.7004 3.5670
380 1 16.3947 22.7003 0.8917
381 1 16.3947 23.9614 1.7834
382 1 17.6558 23.9614 2.6752
383 1 17.6558 25.2225 3.5670
384 1 16.3947 25.2226 0.8917
385 1 16.3946 26.4837 1.7834
386 1 15.1335 23.9614 2.6752
387 1 15.1335 25.2226 3.5670
388 1 18.9169 25.2226 0.8917
389 1 18.9170 26.4837 1.7834
390 1 20.1780 26.4837 2.6752
391 1 20.1780 27.7448 3.5670
392 1 18.9169 27.7448 0.8917
393 1 17.6558 26.4837 2.6752
394 1 17.6558 27.7449 3.5670
395 1 0.0001 11.3502 2.6752
396 1 0.0001 12.6113 3.5670
397 1 1.2612 12.6113 0.8917
398 1 1.2612 13.8724 1.7834
399 1 2.5223 13.8724 2.6752
400 1 2.5224 15.1336 3.5670
401 1 1.2612 15.1336 0.8917
402 1 1.2612 16.3948 1.7834
403 1 0.0001 13.8724 2.6752
404 1 0.0001 15.1336 3.5670
405 1 3.7834 15.1336 0.8917
406 1 3.7835 16.3947 1.7834
407 1 5.0446 16.3947 2.6752
408 1 5.0446 17.6558 3.5670
409 1 3.7834 17.6558 0.8917
410 1 3.7834 18.9169 1.7834
411 1 2.5223 16.3947 2.6752
412 1 2.5223 17.6559 3.5670
413 1 6.3057 17.6558 0.8917
414 1 6.3057 18.9169 1.7834
415 1 7.5668 18.9169 2.6752
416 1 7.5668 20.1780 3.5670
417 1 6.3057 20.1781 0.8917
418 1 6.3056 21.4392 1.7834
419 1 5.0446 18.9169 2.6752
420 1 5.0446 20.1781 3.5670
421 1 8.8279 20.1781 0.8917
422 1 8.8280 21.4392 1.7834
423 1 10.0891 21.4392 2.6752
424 1 10.0891 22.7003 3.5670
425 1 8.8279 22.7003 0.8917
426 1 8.8279 23.9614 1.7834
427 1 7.5668 21.4392 2.6752
428 1 7.5668 22.7004 3.5670
429 1 11.3502 22.7003 0.8917
430 1 11.3502 23.9614 1.7834
431 1 12.6113 23.9614 2.6752
432 1 12.6113 25.2225 3.5670
433 1 11.3502 25.2226 0.8917
434 1 11.3501 26.4837 1.7834
435 1 10.0891 23.9614 2.6752
436 1 10.0891 25.2226 3.5670
437 1 13.8724 25.2226 0.8917
438 1 13.8725 26.4837 1.7834
439 1 15.1335 26.4837 2.6752
440 1 15.1335 27.7448 3.5670
441 1 13.8724 27.7448 0.8917
442 1 12.6113 26.4837 2.6752
443 1 12.6113 27.7449 3.5670
444 1 16.3947 27.7448 0.8917
445 1 0.0001 16.3947 2.6752
446 1 0.0001 17.6558 3.5670
447 1 1.2612 17.6558 0.8917
448 1 1.2612 18.9169 1.7834
449 1 2.5223 18.9169 2.6752
450 1 2.5223 20.1780 3.5670
451 1 1.2612 20.1781 0.8917
452 1 0.0001 18.9169 2.6752
453 1 3.7834 20.1781 0.8917
454 1 3.7835 21.4392 1.7834
455 1 5.0446 21.4392 2.6752
456 1 5.0446 22.7003 3.5670
457 1 3.7834 22.7003 0.8917
458 1 2.5223 21.4392 2.6752
459 1 6.3057 22.7003 0.8917
460 1 6.3057 23.9614 1.7834
461 1 7.5668 23.9614 2.6752
462 1 7.5668 25.2225 3.5670
463 1 6.3057 25.2226 0.8917
464 1 5.0446 23.9614 2.6752
465 1 8.8279 25.2226 0.8917
466 1 8.8280 26.4837 1.7834
467 1 10.0891 26.4837 2.6752
468 1 10.0891 27.7448 3.5670
469 1 8.8279 27.7448 0.8917
470 1 7.5668 26.4837 2.6752
471 1 11.3502 27.7448 0.8917
472 1 1.2611 21.4392 1.7834
473 1 0.0001 21.4392 2.6752
474 1 0.0001 20.1781 3.5670
475 1 0.0001 22.7003 3.5670
476 1 1.2612 22.7003 0.8917
477 1 1.2612 23.9614 1.7834
478 1 3.7834 23.9614 1.7834
479 1 2.5223 23.9614 2.6752
480 1 2.5223 22.7004 3.5670
481 1 2.5223 25.2225 3.5670
482 1 1.2612 25.2226 0.8917
483 1 0.0001 23.9614 2.6752
484 1 3.7834 25.2226 0.8917
485 1 3.7835 26.4837 1.7834
486 1 6.3056 26.4837 1.7834
487 1 5.0446 26.4837 2.6752
488 1 5.0446 25.2226 3.5670
489 1 5.0446 27.7448 3.5670
490 1 3.7834 27.7448 0.8917
491 1 2.5223 26.4837 2.6752
492 1 6.3057 27.7448 0.8917
493 1 7.5668 27.7449 3.5670
494 1 1.2611 26.4837 1.7834
495 1 0.0001 26.4837 2.6752
496 1 0.0001 25.2226 3.5670
497 1 0.0000 27.7448 3.5670
498 1 1.2612 27.7448 0.8917
499 1 2.5223 27.7449 3.5670
500 1 17.6559 0.0001 7.1340
501 1 18.9169 0.0001 4.4587
502 1 18.9170 1.2612 5.3505
503 1 20.1780 1.2612 6.2422
504 1 20.1780 0.0001 7.1340
505 1 20.1780 2.5223 7.1340
506 1 12.6113 0.0000 7.1340
507 1 13.8724 0.0001 4.4587
508 1 16.3947 0.0001 4.4587
509 1 13.8725 1.2612 5.3505
510 1 16.3947 1.2613 5.3505
511 1 15.1335 1.2612 6.2422
512 1 15.1335 0.0001 7.1340
513 1 15.1336 2.5223 7.1340
514 1 16.3947 2.5223 4.4587
515 1 18.9169 2.5223 4.4587
516 1 16.3947 3.7834 5.3505
517 1 18.9169 3.7834 5.3505
518 1 17.6558 1.2612 6.2422
519 1 17.6558 3.7834 6.2422
520 1 17.6558 2.5224 7.1340
521 1 17.6558 5.0445 7.1340
522 1 18.9169 5.0446 4.4587
523 1 18.9170 6.3057 5.3505
524 1 20.1780 3.7834 6.2422
525 1 20.1780 6.3057 6.2422
526 1 20.1780 5.0446 7.1340
527 1 20.1780 7.5668 7.1340
528 1 8.8279 0.0001 4.4587
529 1 11.3502 0.0001 4.4587
530 1 11.3501 1.2612 5.3505
531 1 10.0891 1.2612 6.2422
532 1 10.0891 0.0001 7.1340
533 1 11.3502 2.5223 4.4587
534 1 13.8724 2.5223 4.4587
535 1 13.8724 3.7835 5.3505
536 1 12.6113 1.2612 6.2422
537 1 12.6113 3.7834 6.2422
538 1 12.6113 2.5224 7.1340
539 1 13.8724 5.0446 4.4587
540 1 16.3947 5.0446 4.4587
541 1 16.3946 6.3057 5.3505
542 1 15.1335 3.7834 6.2422
543 1 15.1335 6.3057 6.2422
544 1 15.1335 5.0446 7.1340
545 1 16.3947 7.5668 4.4587
546 1 18.9169 7.5668 4.4587
547 1 18.9169 8.8279 5.3505
548 1 17.6558 6.3057 6.2422
549 1 17.6558 8.8279 6.2422
550 1 17.6558 7.5669 7.1340
551 1 18.9169 10.0891 4.4587
552 1 20.1780 8.8279 6.2422
553 1 20.1780 11.3502 6.2422
554 1 20.1780 10.0891 7.1340
555 1 7.5667 0.0001 7.1340
556 1 3.7834 0.0001 4.4587
557 1 6.3057 0.0001 4.4587
558 1 6.3056 1.2612 5.3505
559 1 5.0446 1.2612 6.2422
560 1 5.0446 0.0001 7.1340
561 1 8.8279 1.2613 5.3505
562 1 10.0890 2.5223 7.1340
563 1 6.3057 2.5223 4.4587
564 1 8.8279 2.5223 4.4587
565 1 8.8279 3.7834 5.3505
566 1 7.5668 1.2612 6.2422
567 1 7.5668 3.7834 6.2422
568 1 7.5668 2.5224 7.1340
569 1 11.3502 3.7835 5.3505
570 1 12.6113 5.0446 7.1340
571 1 8.8279 5.0446 4.4587
572 1 11.3502 5.0446 4.4587
573 1 11.3502 6.3058 5.3505
574 1 10.0891 3.7834 6.2422
575 1 10.0891 6.3057 6.2422
576 1 10.0891 5.0446 7.1340
577 1 13.8724 6.3058 5.3505
578 1 15.1335 7.5668 7.1340
579 1 11.3502 7.5668 4.4587
580 1 13.8724 7.5668 4.4587
581 1 13.8724 8.8279 5.3505
582 1 12.6113 6.3057 6.2422
583 1 12.6113 8.8279 6.2422
584 1 12.6113 7.5669 7.1340
585 1 16.3947 8.8280 5.3505
586 1 17.6557 10.0891 7.1340
587 1 13.8724 10.0891 4.4587
588 1 16.3947 10.0891 4.4587
589 1 16.3946 11.3502 5.3505
590 1 15.1335 8.8279 6.2422
591 1 15.1335 11.3502 6.2422
592 1 15.1335 10.0891 7.1340
593 1 18.9169 11.3503 5.3505
594 1 20.1780 12.6113 7.1340
595 1 16.3947 12.6113 4.4587
596 1 18.9169 12.6113 4.4587
597 1 18.9169 13.8724 5.3505
598 1 17.6558 11.3502 6.2422
599 1 17.6558 13.8724 6.2422
600 1 17.6558 12.6114 7.1340
601 1 18.9169 15.1336 4.4587
602 1 20.1780 13.8724 6.2422
603 1 20.1780 16.3947 6.2422
604 1 20.1780 15.1336 7.1340
605 1 2.5223 0.0000 7.1340
606 1 1.2612 0.0001 4.4587
607 1 1.2611 1.2612 5.3505
608 1 0.0001 1.2612 6.2422
609 1 0.0001 0.0001 7.1340
610 1 3.7835 1.2612 5.3505
611 1 5.0446 2.5223 7.1340
612 1 1.2612 2.5223 4.4587
613 1 3.7834 2.5223 4.4587
614 1 3.7834 3.7834 5.3505
615 1 2.5223 1.2612 6.2422
616 1 2.5223 3.7834 6.2422
617 1 2.5223 2.5224 7.1340
618 1 6.3057 3.7834 5.3505
619 1 7.5668 5.0445 7.1340
620 1 3.7834 5.0446 4.4587
621 1 6.3057 5.0446 4.4587
622 1 6.3056 6.3057 5.3505
623 1 5.0446 3.7834 6.2422
624 1 5.0446 6.3057 6.2422
625 1 5.0446 5.0446 7.1340
626 1 8.8280 6.3057 5.3505
627 1 10.0891 7.5668 7.1340
628 1 6.3057 7.5668 4.4587
629 1 8.8279 7.5668 4.4587
630 1 8.8279 8.8280 5.3505
631 1 7.5668 6.3057 6.2422
632 1 7.5668 8.8279 6.2422
633 1 7.5668 7.5669 7.1340
634 1 11.3502 8.8279 5.3505
635 1 12.6113 10.0890 7.1340
636 1 8.8279 10.0891 4.4587
637 1 11.3502 10.0891 4.4587
638 1 11.3501 11.3502 5.3505
639 1 10.0891 8.8279 6.2422
640 1 10.0891 11.3502 6.2422
641 1 10.0891 10.0891 7.1340
642 1 13.8725 11.3502 5.3505
643 1 15.1335 12.6113 7.1340
644 1 11.3502 12.6113 4.4587
645 1 13.8724 12.6113 4.4587
646 1 13.8724 13.8724 5.3505
647 1 12.6113 11.3502 6.2422
648 1 12.6113 13.8724 6.2422
649 1 12.6113 12.6114 7.1340
650 1 16.3947 13.8724 5.3505
651 1 17.6558 15.1335 7.1340
652 1 13.8724 15.1336 4.4587
653 1 16.3947 15.1336 4.4587
654 1 16.3946 16.3947 5.3505
655 1 15.1335 13.8724 6.2422
656 1 15.1335 16.3947 6.2422
657 1 15.1335 15.1336 7.1340
658 1 18.9170 16.3947 5.3505
659 1 20.1780 17.6558 7.1340
660 1 16.3947 17.6558 4.4587
661 1 18.9169 17.6558 4.4587
662 1 18.9169 18.9169 5.3505
663 1 17.6558 16.3947 6.2422
664 1 17.6558 18.9169 6.2422
665 1 17.6558 17.6559 7.1340
666 1 18.9169 20.1781 4.4587
667 1 20.1780 18.9169 6.2422
668 1 20.1780 21.4392 6.2422
669 1 20.1780 20.1781 7.1340
670 1 0.0001 2.5223 7.1340
671 1 1.2612 3.7834 5.3505
672 1 2.5223 5.0445 7.1340
673 1 1.2612 5.0446 4.4587
674 1 1.2611 6.3057 5.3505
675 1 0.0001 3.7834 6.2422
676 1 0.0001 5.0446 7.1340
677 1 3.7835 6.3057 5.3505
678 1 5.0446 7.5668 7.1340
679 1 3.7834 7.5668 4.4587
680 1 3.7834 8.8279 5.3505
681 1 2.5223 6.3057 6.2422
682 1 2.5223 7.5669 7.1340
683 1 6.3057 8.8279 5.3505
684 1 7.5669 10.0891 7.1340
685 1 6.3057 10.0891 4.4587
686 1 6.3057 11.3503 5.3505
687 1 5.0446 8.8279 6.2422
688 1 5.0446 10.0891 7.1340
689 1 8.8280 11.3502 5.3505
690 1 10.0891 12.6113 7.1340
691 1 8.8279 12.6113 4.4587
692 1 8.8279 13.8724 5.3505
693 1 7.5668 11.3502 6.2422
694 1 7.5668 12.6114 7.1340
695 1 11.3502 13.8724 5.3505
696 1 12.6113 15.1335 7.1340
697 1 11.3502 15.1336 4.4587
698 1 11.3501 16.3947 5.3505
699 1 10.0891 13.8724 6.2422
700 1 10.0891 15.1336 7.1340
701 1 13.8725 16.3947 5.3505
702 1 15.1335 17.6558 7.1340
703 1 13.8724 17.6558 4.4587
704 1 13.8724 18.9169 5.3505
705 1 12.6113 16.3947 6.2422
706 1 12.6113 17.6559 7.1340
707 1 16.3947 18.9169 5.3505
708 1 17.6558 20.1780 7.1340
709 1 16.3947 20.1781 4.4587
710 1 16.3946 21.4392 5.3505
711 1 15.1335 18.9169 6.2422
712 1 15.1335 20.1781 7.1340
713 1 18.9170 21.4392 5.3505
714 1 20.1780 22.7003 7.1340
715 1 18.9169 22.7003 4.4587
716 1 18.9169 23.9614 5.3505
717 1 17.6558 21.4392 6.2422
718 1 17.6558 22.7004 7.1340
719 1 20.1780 23.9614 6.2422
720 1 20.1780 25.2226 7.1340
721 1 0.0001 6.3057 6.2422
722 1 0.0001 7.5668 7.1340
723 1 1.2612 7.5668 4.4587
724 1 1.2612 8.8279 5.3505
725 1 2.5223 8.8279 6.2422
726 1 2.5223 10.0890 7.1340
727 1 1.2612 10.0891 4.4587
728 1 1.2611 11.3502 5.3505
729 1 0.0001 8.8279 6.2422
730 1 0.0001 10.0891 7.1340
731 1 3.7834 10.0891 4.4587
732 1 3.7835 11.3502 5.3505
733 1 5.0446 11.3502 6.2422
734 1 5.0446 12.6113 7.1340
735 1 3.7834 12.6113 4.4587
736 1 3.7834 13.8725 5.3505
737 1 2.5223 11.3502 6.2422
738 1 2.5223 12.6114 7.1340
739 1 6.3057 12.6113 4.4587
740 1 6.3057 13.8724 5.3505
741 1 7.5668 13.8724 6.2422
742 1 7.5668 15.1335 7.1340
743 1 6.3057 15.1336 4.4587
744 1 6.3056 16.3947 5.3505
745 1 5.0446 13.8724 6.2422
746 1 5.0446 15.1336 7.1340
747 1 8.8279 15.1336 4.4587
748 1 8.8280 16.3947 5.3505
749 1 10.0891 16.3947 6.2422
750 1 10.0891 17.6558 7.1340
751 1 8.8279 17.6558 4.4587
752 1 8.8279 18.9169 5.3505
753 1 7.5668 16.3947 6.2422
754 1 7.5668 17.6559 7.1340
755 1 11.3502 17.6558 4.4587
756 1 11.3502 18.9169 5.3505
757 1 12.6113 18.9169 6.2422
758 1 12.6113 20.1780 7.1340
759 1 11.3502 20.1781 4.4587
760 1 11.3501 21.4392 5.3505
761 1 10.0891 18.9169 6.2422
762 1 10.0891 20.1781 7.1340
763 1 13.8724 20.1781 4.4587
764 1 13.8725 21.4392 5.3505
765 1 15.1335 21.4392 6.2422
766 1 15.1335 22.7003 7.1340
767 1 13.8724 22.7003 4.4587
768 1 13.8724 23.9614 5.3505
769 1 12.6113 21.4392 6.2422
770 1 12.6113 22.7004 7.1340
771 1 16.3947 22.7003 4.4587
772 1 16.3947 23.9614 5.3505
773 1 17.6558 23.9614 6.2422
774 1 17.6558 25.2225 7.1340
775 1 16.3947 25.2226 4.4587
776 1 16.3946 26.4837 5.3505
777 1 15.1335 23.9614 6.2422
778 1 15.1335 25.2226 7.1340
779 1 18.9169 25.2226 4.4587
780 1 18.9170 26.4837 5.3505
781 1 20.1780 26.4837 6.2422
782 1 20.1780 27.7448 7.1340
783 1 18.9169 27.7448 4.4587
784 1 17.6558 26.4837 6.2422
785 1 17.6558 27.7449 7.1340
786 1 0.0001 11.3502 6.2422
787 1 0.0001 12.6113 7.1340
788 1 1.2612 12.6113 4.4587
789 1 1.2612 13.8724 5.3505
790 1 2.5223 13.8724 6.2422
791 1 2.5224 15.1336 7.1340
792 1 1.2612 15.1336 4.4587
793 1 1.2612 16.3948 5.3505
794 1 0.0001 13.8724 6.2422
795 1 0.0001 15.1336 7.1340
796 1 3.7834 15.1336 4.4587
797 1 3.7835 16.3947 5.3505
798 1 5.0446 16.3947 6.2422
799 1 5.0446 17.6558 7.1340
800 1 3.7834 17.6558 4.4587
801 1 3.7834 18.9169 5.3505
802 1 2.5223 16.3947 6.2422
803 1 2.5223 17.6559 7.1340
804 1 6.3057 17.6558 4.4587
805 1 6.3057 18.9169 5.3505
806 1 7.5668 18.9169 6.2422
807 1 7.5668 20.1780 7.1340
808 1 6.3057 20.1781 4.4587
809 1 6.3056 21.4392 5.3505
810 1 5.0446 18.9169 6.2422
811 1 5.0446 20.1781 7.1340
812 1 8.8279 20.1781 4.4587
813 1 8.8280 21.4392 5.3505
814 1 10.0891 21.4392 6.2422
815 1 10.0891 22.7003 7.1340
816 1 8.8279 22.7003 4.4587
817 1 8.8279 23.9614 5.3505
818 1 7.5668 21.4392 6.2422
819 1 7.5668 22.7004 7.1340
820 1 11.3502 22.7003 4.4587
821 1 11.3502 23.9614 5.3505
822 1 12.6113 23.9614 6.2422
823 1 12.6113 25.2225 7.1340
824 1 11.3502 25.2226 4.4587
825 1 11.3501 26.4837 5.3505
826 1 10.0891 23.9614 6.2422
827 1 10.0891 25.2226 7.1340
828 1 13.8724 25.2226 4.4587
829 1 13.8725 26.4837 5.3505
830 1 15.1335 26.4837 6.2422
831 1 15.1335 27.7448 7.1340
832 1 13.8724 27.7448 4.4587
833 1 12.6113 26.4837 6.2422
834 1 12.6113 27.7449 7.1340
835 1 16.3947 27.7448 4.4587
836 1 0.0001 16.3947 6.2422
837 1 0.0001 17.6558 7.1340
838 1 1.2612 17.6558 4.4587
839 1 1.2612 18.9169 5.3505
840 1 2.5223 18.9169 6.2422
841 1 2.5223 20.1780 7.1340
842 1 1.2612 20.1781 4.4587
843 1 0.0001 18.9169 6.2422
844 1 3.7834 20.1781 4.4587
845 1 3.7835 21.4392 5.3505
846 1 5.0446 21.4392 6.2422
847 1 5.0446 22.7003 7.1340
848 1 3.7834 22.7003 4.4587
849 1 2.5223 21.4392 6.2422
850 1 6.3057 22.7003 4.4587
851 1 6.3057 23.9614 5.3505
852 1 7.5668 23.9614 6.2422
853 1 7.5668 25.2225 7.1340
854 1 6.3057 25.2226 4.4587
855 1 5.0446 23.9614 6.2422
856 1 8.8279 25.2226 4.4587
857 1 8.8280 26.4837 5.3505
858 1 10.0891 26.4837 6.2422
859 1 10.0891 27.7448 7.1340
860 1 8.8279 27.7448 4.4587
861 1 7.5668 26.4837 6.2422
862 1 11.3502 27.7448 4.4587
863 1 1.2611 21.4392 5.3505
864 1 0.0001 21.4392 6.2422
865 1 0.0001 20.1781 7.1340
866 1 0.0001 22.7003 7.1340
867 1 1.2612 22.7003 4.4587
868 1 1.2612 23.9614 5.3505
869 1 3.7834 23.9614 5.3505
870 1 2.5223 23.9614 6.2422
871 1 2.5223 22.7004 7.1340
872 1 2.5223 25.2225 7.1340
873 1 1.2612 25.2226 4.4587
874 1 0.0001 23.9614 6.2422
875 1 3.7834 25.2226 4.4587
876 1 3.7835 26.4837 5.3505
877 1 6.3056 26.4837 5.3505
878 1 5.0446 26.4837 6.2422
879 1 5.0446 25.2226 7.1340
880 1 5.0446 27.7448 7.1340
881 1 3.7834 27.7448 4.4587
882 1 2.5223 26.4837 6.2422
883 1 6.3057 27.7448 4.4587
884 1 7.5668 27.7449 7.1340
885 1 1.2611 26.4837 5.3505
886 1 0.0001 26.4837 6.2422
887 1 0.0001 25.2226 7.1340
888 1 0.0000 27.7448 7.1340
889 1 1.2612 27.7448 4.4587
890 1 2.5223 27.7449 7.1340
891 1 18.9169 0.0001 8.0257
892 1 18.9170 1.2612 8.9174
893 1 13.8724 0.0001 8.0257
894 1 16.3947 0.0001 8.0257
895 1 13.8725 1.2612 8.9174
896 1 16.3947 1.2613 8.9174
897 1 16.3947 2.5223 8.0257
898 1 18.9169 2.5223 8.0257
899 1 16.3947 3.7834 8.9174
900 1 18.9169 3.7834 8.9174
901 1 18.9169 5.0446 8.0257
902 1 18.9170 6.3057 8.9174
903 1 8.8279 0.0001 8.0257
904 1 11.3502 0.0001 8.0257
905 1 11.3501 1.2612 8.9174
906 1 11.3502 2.5223 8.0257
907 1 13.8724 2.5223 8.0257
908 1 13.8724 3.7835 8.9174
909 1 13.8724 5.0446 8.0257
910 1 16.3947 5.0446 8.0257
911 1 16.3946 6.3057 8.9174
912 1 16.3947 7.5668 8.0257
913 1 18.9169 7.5668 8.0257
914 1 18.9169 8.8279 8.9174
915 1 18.9169 10.0891 8.0257
916 1 3.7834 0.0001 8.0257
917 1 6.3057 0.0001 8.0257
918 1 6.3056 1.2612 8.9174
919 1 8.8279 1.2613 8.9174
920 1 6.3057 2.5223 8.0257
921 1 8.8279 2.5223 8.0257
922 1 8.8279 3.7834 8.9174
923 1 11.3502 3.7835 8.9174
924 1 8.8279 5.0446 8.0257
925 1 11.3502 5.0446 8.0257
926 1 11.3502 6.3058 8.9174
927 1 13.8724 6.3058 8.9174
928 1 11.3502 7.5668 8.0257
929 1 13.8724 7.5668 8.0257
930 1 13.8724 8.8279 8.9174
931 1 16.3947 8.8280 8.9174
932 1 13.8724 10.0891 8.0257
933 1 16.3947 10.0891 8.0257
934 1 16.3946 11.3502 8.9174
935 1 18.9169 11.3503 8.9174
936 1 16.3947 12.6113 8.0257
937 1 18.9169 12.6113 8.0257
938 1 18.9169 13.8724 8.9174
939 1 18.9169 15.1336 8.0257
940 1 1.2612 0.0001 8.0257
941 1 1.2611 1.2612 8.9174
942 1 3.7835 1.2612 8.9174
943 1 1.2612 2.5223 8.0257
944 1 3.7834 2.5223 8.0257
945 1 3.7834 3.7834 8.9174
946 1 6.3057 3.7834 8.9174
947 1 3.7834 5.0446 8.0257
948 1 6.3057 5.0446 8.0257
949 1 6.3056 6.3057 8.9174
950 1 8.8280 6.3057 8.9174
951 1 6.3057 7.5668 8.0257
952 1 8.8279 7.5668 8.0257
953 1 8.8279 8.8280 8.9174
954 1 11.3502 8.8279 8.9174
955 1 8.8279 10.0891 8.0257
956 1 11.3502 10.0891 8.0257
957 1 11.3501 11.3502 8.9174
958 1 13.8725 11.3502 8.9174
959 1 11.3502 12.6113 8.0257
960 1 13.8724 12.6113 8.0257
961 1 13.8724 13.8724 8.9174
962 1 16.3947 13.8724 8.9174
963 1 13.8724 15.1336 8.0257
964 1 16.3947 15.1336 8.0257
965 1 16.3946 16.3947 8.9174
966 1 18.9170 16.3947 8.9174
967 1 16.3947 17.6558 8.0257
968 1 18.9169 17.6558 8.0257
969 1 18.9169 18.9169 8.9174
970 1 18.9169 20.1781 8.0257
971 1 1.2612 3.7834 8.9174
972 1 1.2612 5.0446 8.0257
973 1 1.2611 6.3057 8.9174
974 1 3.7835 6.3057 8.9174
975 1 3.7834 7.5668 8.0257
976 1 3.7834 8.8279 8.9174
977 1 6.3057 8.8279 8.9174
978 1 6.3057 10.0891 8.0257
979 1 6.3057 11.3503 8.9174
980 1 8.8280 11.3502 8.9174
981 1 8.8279 12.6113 8.0257
982 1 8.8279 13.8724 8.9174
983 1 11.3502 13.8724 8.9174
984 1 11.3502 15.1336 8.0257
985 1 11.3501 16.3947 8.9174
986 1 13.8725 16.3947 8.9174
987 1 13.8724 17.6558 8.0257
988 1 13.8724 18.9169 8.9174
989 1 16.3947 18.9169 8.9174
990 1 16.3947 20.1781 8.0257
991 1 16.3946 21.4392 8.9174
992 1 18.9170 21.4392 8.9174
993 1 18.9169 22.7003 8.0257
994 1 18.9169 23.9614 8.9174
995 1 1.2612 7.5668 8.0257
996 1 1.2612 8.8279 8.9174
997 1 1.2612 10.0891 8.0257
998 1 1.2611 11.3502 8.9174
999 1 3.7834 10.0891 8.0257
1000 1 3.7835 11.3502 8.9174
1001 1 3.7834 12.6113 8.0257
1002 1 3.7834 13.8725 8.9174
1003 1 6.3057 12.6113 8.0257
1004 1 6.3057 13.8724 8.9174
1005 1 6.3057 15.1336 8.0257
1006 1 6.3056 16.3947 8.9174
1007 1 8.8279 15.1336 8.0257
1008 1 8.8280 16.3947 8.9174
1009 1 8.8279 17.6558 8.0257
1010 1 8.8279 18.9169 8.9174
1011 1 11.3502 17.6558 8.0257
1012 1 11.3502 18.9169 8.9174
1013 1 11.3502 20.1781 8.0257
1014 1 11.3501 21.4392 8.9174
1015 1 13.8724 20.1781 8.0257
1016 1 13.8725 21.4392 8.9174
1017 1 13.8724 22.7003 8.0257
1018 1 13.8724 23.9614 8.9174
1019 1 16.3947 22.7003 8.0257
1020 1 16.3947 23.9614 8.9174
1021 1 16.3947 25.2226 8.0257
1022 1 16.3946 26.4837 8.9174
1023 1 18.9169 25.2226 8.0257
1024 1 18.9170 26.4837 8.9174
1025 1 18.9169 27.7448 8.0257
1026 1 1.2612 12.6113 8.0257
1027 1 1.2612 13.8724 8.9174
1028 1 1.2612 15.1336 8.0257
1029 1 1.2612 16.3948 8.9174
1030 1 3.7834 15.1336 8.0257
1031 1 3.7835 16.3947 8.9174
1032 1 3.7834 17.6558 8.0257
1033 1 3.7834 18.9169 8.9174
1034 1 6.3057 17.6558 8.0257
1035 1 6.3057 18.9169 8.9174
1036 1 6.3057 20.1781 8.0257
1037 1 6.3056 21.4392 8.9174
1038 1 8.8279 20.1781 8.0257
1039 1 8.8280 21.4392 8.9174
1040 1 8.8279 22.7003 8.0257
1041 1 8.8279 23.9614 8.9174
1042 1 11.3502 22.7003 8.0257
1043 1 11.3502 23.9614 8.9174
1044 1 11.3502 25.2226 8.0257
1045 1 11.3501 26.4837 8.9174
1046 1 13.8724 25.2226 8.0257
1047 1 13.8725 26.4837 8.9174
1048 1 13.8724 27.7448 8.0257
1049 1 16.3947 27.7448 8.0257
1050 1 1.2612 17.6558 8.0257
1051 1 1.2612 18.9169 8.9174
1052 1 1.2612 20.1781 8.0257
1053 1 3.7834 20.1781 8.0257
1054 1 3.7835 21.4392 8.9174
1055 1 3.7834 22.7003 8.0257
1056 1 6.3057 22.7003 8.0257
1057 1 6.3057 23.9614 8.9174
1058 1 6.3057 25.2226 8.0257
1059 1 8.8279 25.2226 8.0257