LAMMPS data file from restart file: timestep = 1, procs = 1

1123 atoms

3 atom types

0.0000 10.7785 xlo xhi
0.0000 28.7820 ylo yhi
-50 71.34 zlo zhi

Masses

1 12.01
2 2
3 3

Atoms

1 1 5.7210 0.1539 1.7836
2 1 7.3970 0.7639 0.0000
3 1 8.5399 0.2310 0.8918
4 1 9.0729 1.3739 1.7836
5 1 1.7591 0.6100 0.0000
6 1 0.6162 1.1429 0.8918
7 1 0.0832 0.0000 1.7836
8 1 5.1110 1.8299 0.0000
9 1 2.9021 0.0770 0.8918
10 1 3.9681 2.3629 0.8918
11 1 3.4351 1.2200 1.7836
12 1 8.4628 3.0499 0.0000
13 1 6.2540 1.2969 0.8918
14 1 7.3199 3.5829 0.8918
15 1 6.7870 2.4400 1.7836
16 1 9.6059 2.5169 0.8918
17 1 10.6718 4.8029 0.8918
18 1 10.1389 3.6600 1.7836
19 1 1.1491 2.2858 1.7836
20 1 0.5391 3.9618 0.0000
21 1 2.8252 2.8958 0.0000
22 1 4.5010 3.5058 1.7836
23 1 3.8910 5.1818 0.0000
24 1 1.6821 3.4288 0.8918
25 1 2.7481 5.7148 0.8918
26 1 2.2151 4.5719 1.7836
27 1 6.1770 4.1158 0.0000
28 1 7.8529 4.7258 1.7836
29 1 7.2429 6.4018 0.0000
30 1 5.0340 4.6488 0.8918
31 1 6.1000 6.9348 0.8918
32 1 5.5670 5.7919 1.7836
33 1 9.5289 5.3358 0.0000
34 1 10.5948 7.6218 0.0000
35 1 8.3859 5.8688 0.8918
36 1 9.4518 8.1547 0.8918
37 1 8.9189 7.0118 1.7836
38 1 1.6051 6.2478 0.0000
39 1 3.2810 6.8578 1.7836
40 1 2.6710 8.5337 0.0000
41 1 0.4621 6.7807 0.8918
42 1 1.5281 9.0667 0.8918
43 1 0.9951 7.9238 1.7836
44 1 4.9570 7.4678 0.0000
45 1 6.6329 8.0778 1.7836
46 1 6.0229 9.7537 0.0000
47 1 3.8140 8.0007 0.8918
48 1 4.8800 10.2866 0.8918
49 1 4.3470 9.1437 1.7836
50 1 8.3089 8.6878 0.0000
51 1 9.9848 9.2978 1.7836
52 1 9.3749 10.9737 0.0000
53 1 7.1659 9.2207 0.8918
54 1 8.2319 11.5066 0.8918
55 1 7.6989 10.3637 1.7836
56 1 10.5178 10.4407 0.8918
57 1 0.3852 9.5996 0.0000
58 1 2.0610 10.2096 1.7836
59 1 1.4510 11.8856 0.0000
60 1 3.7371 10.8196 0.0000
61 1 5.4129 11.4295 1.7836
62 1 4.8029 13.1056 0.0000
63 1 2.5940 11.3526 0.8918
64 1 3.1270 12.4956 1.7836
65 1 7.0890 12.0396 0.0000
66 1 8.7649 12.6496 1.7836
67 1 8.1549 14.3256 0.0000
68 1 5.9459 12.5726 0.8918
69 1 6.4789 13.7156 1.7836
70 1 10.4408 13.2596 0.0000
71 1 9.2978 13.7926 0.8918
72 1 9.8308 14.9356 1.7836
73 1 0.3081 12.4185 0.8918
74 1 0.8410 13.5614 1.7836
75 1 0.2310 15.2375 0.0000
76 1 2.5171 14.1715 0.0000
77 1 3.6600 13.6385 0.8918
78 1 4.1929 14.7814 1.7836
79 1 3.5829 16.4575 0.0000
80 1 1.3741 14.7045 0.8918
81 1 1.9071 15.8475 1.7836
82 1 5.8690 15.3915 0.0000
83 1 7.0119 14.8585 0.8918
84 1 7.5449 16.0014 1.7836
85 1 6.9349 17.6775 0.0000
86 1 4.7259 15.9245 0.8918
87 1 5.2589 17.0675 1.7836
88 1 9.2209 16.6114 0.0000
89 1 10.3638 16.0785 0.8918
90 1 10.2867 18.8974 0.0000
91 1 8.0778 17.1444 0.8918
92 1 8.6108 18.2875 1.7836
93 1 1.2971 17.5234 0.0000
94 1 2.4400 16.9904 0.8918
95 1 2.9729 18.1333 1.7836
96 1 2.3629 19.8093 0.0000
97 1 0.1541 18.0564 0.8918
98 1 0.6871 19.1994 1.7836
99 1 4.6490 18.7433 0.0000
100 1 5.7919 18.2104 0.8918
101 1 6.3249 19.3533 1.7836
102 1 5.7149 21.0294 0.0000
103 1 3.5059 19.2763 0.8918
104 1 4.0390 20.4194 1.7836
105 1 8.0009 19.9633 0.0000
106 1 9.1438 19.4304 0.8918
107 1 9.6767 20.5733 1.7836
108 1 9.0667 22.2493 0.0000
109 1 6.8578 20.4963 0.8918
110 1 7.3908 21.6394 1.7836
111 1 10.2097 21.7163 0.8918
112 1 0.0771 20.8752 0.0000
113 1 1.2200 20.3423 0.8918
114 1 1.7530 21.4852 1.7836
115 1 3.4290 22.0952 0.0000
116 1 4.5719 21.5623 0.8918
117 1 5.1049 22.7052 1.7836
118 1 2.2860 22.6282 0.8918
119 1 6.7809 23.3152 0.0000
120 1 7.9238 22.7823 0.8918
121 1 8.4567 23.9252 1.7836
122 1 5.6378 23.8482 0.8918
123 1 10.1328 24.5352 0.0000
124 1 8.9897 25.0682 0.8918
125 1 1.1429 23.1612 0.0000
126 1 0.0000 23.6942 0.8918
127 1 0.5330 24.8371 1.7836
128 1 2.2090 25.4471 0.0000
129 1 4.4949 24.3813 0.0000
130 1 3.3519 24.9142 0.8918
131 1 2.8190 23.7713 1.7836
132 1 3.8850 26.0571 1.7836
133 1 1.0660 25.9801 0.8918
134 1 5.5609 26.6671 0.0000
135 1 7.8467 25.6012 0.0000
136 1 6.7038 26.1341 0.8918
137 1 6.1709 24.9912 1.7836
138 1 7.2367 27.2771 1.7836
139 1 4.4179 27.2001 0.8918
140 1 8.9128 27.8871 0.0000
141 1 10.0557 27.3541 0.8918
142 1 9.5227 26.2112 1.7836
143 1 10.5886 28.4970 1.7836
144 1 7.7697 28.4201 0.8918
145 1 3.2749 27.7331 0.0000
146 1 2.1319 28.2660 0.8918
147 1 1.5990 27.1231 1.7836
148 1 4.9509 28.3431 1.7836
149 1 5.7210 0.1539 5.3506
150 1 7.3970 0.7639 3.5670
151 1 8.5399 0.2310 4.4588
152 1 9.0729 1.3739 5.3506
153 1 10.2159 0.8410 2.6753
154 1 1.7591 0.6100 3.5670
155 1 0.6162 1.1429 4.4588
156 1 0.0832 0.0000 5.3506
157 1 2.2921 1.7529 2.6753
158 1 4.5781 0.6869 2.6753
159 1 5.1110 1.8299 3.5670
160 1 2.9021 0.0770 4.4588
161 1 3.9681 2.3629 4.4588
162 1 3.4351 1.2200 5.3506
163 1 5.6440 2.9729 2.6753
164 1 7.9299 1.9069 2.6753
165 1 8.4628 3.0499 3.5670
166 1 6.2540 1.2969 4.4588
167 1 7.3199 3.5829 4.4588
168 1 6.7870 2.4400 5.3506
169 1 8.9959 4.1929 2.6753
170 1 9.6059 2.5169 4.4588
171 1 10.6718 4.8029 4.4588
172 1 10.1389 3.6600 5.3506
173 1 1.1491 2.2858 5.3506
174 1 0.0062 2.8188 2.6753
175 1 0.5391 3.9618 3.5670
176 1 2.8252 2.8958 3.5670
177 1 4.5010 3.5058 5.3506
178 1 1.0721 5.1048 2.6753
179 1 3.3581 4.0388 2.6753
180 1 3.8910 5.1818 3.5670
181 1 1.6821 3.4288 4.4588
182 1 2.7481 5.7148 4.4588
183 1 2.2151 4.5719 5.3506
184 1 6.1770 4.1158 3.5670
185 1 7.8529 4.7258 5.3506
186 1 4.4240 6.3248 2.6753
187 1 6.7100 5.2588 2.6753
188 1 7.2429 6.4018 3.5670
189 1 5.0340 4.6488 4.4588
190 1 6.1000 6.9348 4.4588
191 1 5.5670 5.7919 5.3506
192 1 9.5289 5.3358 3.5670
193 1 7.7759 7.5448 2.6753
194 1 10.0618 6.4788 2.6753
195 1 10.5948 7.6218 3.5670
196 1 8.3859 5.8688 4.4588
197 1 9.4518 8.1547 4.4588
198 1 8.9189 7.0118 5.3506
199 1 1.6051 6.2478 3.5670
200 1 3.2810 6.8578 5.3506
201 1 2.1381 7.3907 2.6753
202 1 2.6710 8.5337 3.5670
203 1 0.4621 6.7807 4.4588
204 1 1.5281 9.0667 4.4588
205 1 0.9951 7.9238 5.3506
206 1 4.9570 7.4678 3.5670
207 1 6.6329 8.0778 5.3506
208 1 3.2040 9.6766 2.6753
209 1 5.4900 8.6107 2.6753
210 1 6.0229 9.7537 3.5670
211 1 3.8140 8.0007 4.4588
212 1 4.8800 10.2866 4.4588
213 1 4.3470 9.1437 5.3506
214 1 8.3089 8.6878 3.5670
215 1 9.9848 9.2978 5.3506
216 1 6.5559 10.8966 2.6753
217 1 8.8418 9.8307 2.6753
218 1 9.3749 10.9737 3.5670
219 1 7.1659 9.2207 4.4588
220 1 8.2319 11.5066 4.4588
221 1 7.6989 10.3637 5.3506
222 1 9.9078 12.1166 2.6753
223 1 10.5178 10.4407 4.4588
224 1 0.3852 9.5996 3.5670
225 1 2.0610 10.2096 5.3506
226 1 0.9181 10.7426 2.6753
227 1 1.4510 11.8856 3.5670
228 1 3.7371 10.8196 3.5670
229 1 5.4129 11.4295 5.3506
230 1 4.2700 11.9626 2.6753
231 1 4.8029 13.1056 3.5670
232 1 2.5940 11.3526 4.4588
233 1 3.1270 12.4956 5.3506
234 1 7.0890 12.0396 3.5670
235 1 8.7649 12.6496 5.3506
236 1 7.6219 13.1826 2.6753
237 1 8.1549 14.3256 3.5670
238 1 5.9459 12.5726 4.4588
239 1 6.4789 13.7156 5.3506
240 1 10.4408 13.2596 3.5670
241 1 9.2978 13.7926 4.4588
242 1 9.8308 14.9356 5.3506
243 1 0.3081 12.4185 4.4588
244 1 0.8410 13.5614 5.3506
245 1 0.2310 15.2375 3.5670
246 1 1.9840 13.0285 2.6753
247 1 2.5171 14.1715 3.5670
248 1 3.6600 13.6385 4.4588
249 1 4.1929 14.7814 5.3506
250 1 3.0500 15.3145 2.6753
251 1 3.5829 16.4575 3.5670
252 1 1.3741 14.7045 4.4588
253 1 1.9071 15.8475 5.3506
254 1 5.3359 14.2485 2.6753
255 1 5.8690 15.3915 3.5670
256 1 7.0119 14.8585 4.4588
257 1 7.5449 16.0014 5.3506
258 1 6.4019 16.5345 2.6753
259 1 6.9349 17.6775 3.5670
260 1 4.7259 15.9245 4.4588
261 1 5.2589 17.0675 5.3506
262 1 8.6878 15.4685 2.6753
263 1 9.2209 16.6114 3.5670
264 1 10.3638 16.0785 4.4588
265 1 9.7538 17.7544 2.6753
266 1 10.2867 18.8974 3.5670
267 1 8.0778 17.1444 4.4588
268 1 8.6108 18.2875 5.3506
269 1 0.7641 16.3804 2.6753
270 1 1.2971 17.5234 3.5670
271 1 2.4400 16.9904 4.4588
272 1 2.9729 18.1333 5.3506
273 1 1.8300 18.6663 2.6753
274 1 2.3629 19.8093 3.5670
275 1 0.1541 18.0564 4.4588
276 1 0.6871 19.1994 5.3506
277 1 4.1159 17.6004 2.6753
278 1 4.6490 18.7433 3.5670
279 1 5.7919 18.2104 4.4588
280 1 6.3249 19.3533 5.3506
281 1 5.1819 19.8863 2.6753
282 1 5.7149 21.0294 3.5670
283 1 3.5059 19.2763 4.4588
284 1 4.0390 20.4194 5.3506
285 1 7.4678 18.8204 2.6753
286 1 8.0009 19.9633 3.5670
287 1 9.1438 19.4304 4.4588
288 1 9.6767 20.5733 5.3506
289 1 8.5338 21.1063 2.6753
290 1 9.0667 22.2493 3.5670
291 1 6.8578 20.4963 4.4588
292 1 7.3908 21.6394 5.3506
293 1 10.2097 21.7163 4.4588
294 1 0.0771 20.8752 3.5670
295 1 1.2200 20.3423 4.4588
296 1 1.7530 21.4852 5.3506
297 1 0.6100 22.0182 2.6753
298 1 2.8960 20.9523 2.6753
299 1 3.4290 22.0952 3.5670
300 1 4.5719 21.5623 4.4588
301 1 5.1049 22.7052 5.3506
302 1 3.9619 23.2382 2.6753
303 1 2.2860 22.6282 4.4588
304 1 6.2478 22.1723 2.6753
305 1 6.7809 23.3152 3.5670
306 1 7.9238 22.7823 4.4588
307 1 8.4567 23.9252 5.3506
308 1 7.3138 24.4582 2.6753
309 1 5.6378 23.8482 4.4588
310 1 9.5997 23.3923 2.6753
311 1 10.1328 24.5352 3.5670
312 1 10.6657 25.6782 2.6753
313 1 8.9897 25.0682 4.4588
314 1 1.1429 23.1612 3.5670
315 1 0.0000 23.6942 4.4588
316 1 0.5330 24.8371 5.3506
317 1 1.6760 24.3042 2.6753
318 1 2.2090 25.4471 3.5670
319 1 4.4949 24.3813 3.5670
320 1 3.3519 24.9142 4.4588
321 1 2.8190 23.7713 5.3506
322 1 3.8850 26.0571 5.3506
323 1 2.7419 26.5901 2.6753
324 1 1.0660 25.9801 4.4588
325 1 5.0279 25.5242 2.6753
326 1 5.5609 26.6671 3.5670
327 1 7.8467 25.6012 3.5670
328 1 6.7038 26.1341 4.4588
329 1 6.1709 24.9912 5.3506
330 1 7.2367 27.2771 5.3506
331 1 6.0938 27.8101 2.6753
332 1 4.4179 27.2001 4.4588
333 1 8.3797 26.7441 2.6753
334 1 8.9128 27.8871 3.5670
335 1 10.0557 27.3541 4.4588
336 1 9.5227 26.2112 5.3506
337 1 10.5886 28.4970 5.3506
338 1 7.7697 28.4201 4.4588
339 1 0.4560 27.6561 2.6753
340 1 3.2749 27.7331 3.5670
341 1 2.1319 28.2660 4.4588
342 1 1.5990 27.1231 5.3506
343 1 4.9509 28.3431 5.3506
344 1 5.7210 0.1539 8.9176
345 1 7.3970 0.7639 7.1341
346 1 8.5399 0.2310 8.0258
347 1 9.0729 1.3739 8.9176
348 1 10.2159 0.8410 6.2423
349 1 1.7591 0.6100 7.1341
350 1 0.6162 1.1429 8.0258
351 1 0.0832 0.0000 8.9176
352 1 2.2921 1.7529 6.2423
353 1 4.5781 0.6869 6.2423
354 1 5.1110 1.8299 7.1341
355 1 2.9021 0.0770 8.0258
356 1 3.9681 2.3629 8.0258
357 1 3.4351 1.2200 8.9176
358 1 5.6440 2.9729 6.2423
359 1 7.9299 1.9069 6.2423
360 1 8.4628 3.0499 7.1341
361 1 6.2540 1.2969 8.0258
362 1 7.3199 3.5829 8.0258
363 1 6.7870 2.4400 8.9176
364 1 8.9959 4.1929 6.2423
365 1 9.6059 2.5169 8.0258
366 1 10.6718 4.8029 8.0258
367 1 10.1389 3.6600 8.9176
368 1 1.1491 2.2858 8.9176
369 1 0.0062 2.8188 6.2423
370 1 0.5391 3.9618 7.1341
371 1 2.8252 2.8958 7.1341
372 1 4.5010 3.5058 8.9176
373 1 1.0721 5.1048 6.2423
374 1 3.3581 4.0388 6.2423
375 1 3.8910 5.1818 7.1341
376 1 1.6821 3.4288 8.0258
377 1 2.7481 5.7148 8.0258
378 1 2.2151 4.5719 8.9176
379 1 6.1770 4.1158 7.1341
380 1 7.8529 4.7258 8.9176
381 1 4.4240 6.3248 6.2423
382 1 6.7100 5.2588 6.2423
383 1 7.2429 6.4018 7.1341
384 1 5.0340 4.6488 8.0258
385 1 6.1000 6.9348 8.0258
386 1 5.5670 5.7919 8.9176
387 1 9.5289 5.3358 7.1341
388 1 7.7759 7.5448 6.2423
389 1 10.0618 6.4788 6.2423
390 1 10.5948 7.6218 7.1341
391 1 8.3859 5.8688 8.0258
392 1 9.4518 8.1547 8.0258
393 1 8.9189 7.0118 8.9176
394 1 1.6051 6.2478 7.1341
395 1 3.2810 6.8578 8.9176
396 1 2.1381 7.3907 6.2423
397 1 2.6710 8.5337 7.1341
398 1 0.4621 6.7807 8.0258
399 1 1.5281 9.0667 8.0258
400 1 0.9951 7.9238 8.9176
401 1 4.9570 7.4678 7.1341
402 1 6.6329 8.0778 8.9176
403 1 3.2040 9.6766 6.2423
404 1 5.4900 8.6107 6.2423
405 1 6.0229 9.7537 7.1341
406 1 3.8140 8.0007 8.0258
407 1 4.8800 10.2866 8.0258
408 1 4.3470 9.1437 8.9176
409 1 8.3089 8.6878 7.1341
410 1 9.9848 9.2978 8.9176
411 1 6.5559 10.8966 6.2423
412 1 8.8418 9.8307 6.2423
413 1 9.3749 10.9737 7.1341
414 1 7.1659 9.2207 8.0258
415 1 8.2319 11.5066 8.0258
416 1 7.6989 10.3637 8.9176
417 1 9.9078 12.1166 6.2423
418 1 10.5178 10.4407 8.0258
419 1 0.3852 9.5996 7.1341
420 1 2.0610 10.2096 8.9176
421 1 0.9181 10.7426 6.2423
422 1 1.4510 11.8856 7.1341
423 1 3.7371 10.8196 7.1341
424 1 5.4129 11.4295 8.9176
425 1 4.2700 11.9626 6.2423
426 1 4.8029 13.1056 7.1341
427 1 2.5940 11.3526 8.0258
428 1 3.1270 12.4956 8.9176
429 1 7.0890 12.0396 7.1341
430 1 8.7649 12.6496 8.9176
431 1 7.6219 13.1826 6.2423
432 1 8.1549 14.3256 7.1341
433 1 5.9459 12.5726 8.0258
434 1 6.4789 13.7156 8.9176
435 1 10.4408 13.2596 7.1341
436 1 9.2978 13.7926 8.0258
437 1 9.8308 14.9356 8.9176
438 1 0.3081 12.4185 8.0258
439 1 0.8410 13.5614 8.9176
440 1 0.2310 15.2375 7.1341
441 1 1.9840 13.0285 6.2423
442 1 2.5171 14.1715 7.1341
443 1 3.6600 13.6385 8.0258
444 1 4.1929 14.7814 8.9176
445 1 3.0500 15.3145 6.2423
446 1 3.5829 16.4575 7.1341
447 1 1.3741 14.7045 8.0258
448 1 1.9071 15.8475 8.9176
449 1 5.3359 14.2485 6.2423
450 1 5.8690 15.3915 7.1341
451 1 7.0119 14.8585 8.0258
452 1 7.5449 16.0014 8.9176
453 1 6.4019 16.5345 6.2423
454 1 6.9349 17.6775 7.1341
455 1 4.7259 15.9245 8.0258
456 1 5.2589 17.0675 8.9176
457 1 8.6878 15.4685 6.2423
458 1 9.2209 16.6114 7.1341
459 1 10.3638 16.0785 8.0258
460 1 9.7538 17.7544 6.2423
461 1 10.2867 18.8974 7.1341
462 1 8.0778 17.1444 8.0258
463 1 8.6108 18.2875 8.9176
464 1 0.7641 16.3804 6.2423
465 1 1.2971 17.5234 7.1341
466 1 2.4400 16.9904 8.0258
467 1 2.9729 18.1333 8.9176
468 1 1.8300 18.6663 6.2423
469 1 2.3629 19.8093 7.1341
470 1 0.1541 18.0564 8.0258
471 1 0.6871 19.1994 8.9176
472 1 4.1159 17.6004 6.2423
473 1 4.6490 18.7433 7.1341
474 1 5.7919 18.2104 8.0258
475 1 6.3249 19.3533 8.9176
476 1 5.1819 19.8863 6.2423
477 1 5.7149 21.0294 7.1341
478 1 3.5059 19.2763 8.0258
479 1 4.0390 20.4194 8.9176
480 1 7.4678 18.8204 6.2423
481 1 8.0009 19.9633 7.1341
482 1 9.1438 19.4304 8.0258
483 1 9.6767 20.5733 8.9176
484 1 8.5338 21.1063 6.2423
485 1 9.0667 22.2493 7.1341
486 1 6.8578 20.4963 8.0258
487 1 7.3908 21.6394 8.9176
488 1 10.2097 21.7163 8.0258
489 1 0.0771 20.8752 7.1341
490 1 1.2200 20.3423 8.0258
491 1 1.7530 21.4852 8.9176
492 1 0.6100 22.0182 6.2423
493 1 2.8960 20.9523 6.2423
494 1 3.4290 22.0952 7.1341
495 1 4.5719 21.5623 8.0258
496 1 5.1049 22.7052 8.9176
497 1 3.9619 23.2382 6.2423
498 1 2.2860 22.6282 8.0258
499 1 6.2478 22.1723 6.2423
500 1 6.7809 23.3152 7.1341
501 1 7.9238 22.7823 8.0258
502 1 8.4567 23.9252 8.9176
503 1 7.3138 24.4582 6.2423
504 1 5.6378 23.8482 8.0258
505 1 9.5997 23.3923 6.2423
506 1 10.1328 24.5352 7.1341
507 1 10.6657 25.6782 6.2423
508 1 8.9897 25.0682 8.0258
509 1 1.1429 23.1612 7.1341
510 1 0.0000 23.6942 8.0258
511 1 0.5330 24.8371 8.9176
512 1 1.6760 24.3042 6.2423
513 1 2.2090 25.4471 7.1341
514 1 4.4949 24.3813 7.1341
515 1 3.3519 24.9142 8.0258
516 1 2.8190 23.7713 8.9176
517 1 3.8850 26.0571 8.9176
518 1 2.7419 26.5901 6.2423
519 1 1.0660 25.9801 8.0258
520 1 5.0279 25.5242 6.2423
521 1 5.5609 26.6671 7.1341
522 1 7.8467 25.6012 7.1341
523 1 6.7038 26.1341 8.0258
524 1 6.1709 24.9912 8.9176
525 1 7.2367 27.2771 8.9176
526 1 6.0938 27.8101 6.2423
527 1 4.4179 27.2001 8.0258
528 1 8.3797 26.7441 6.2423
529 1 8.9128 27.8871 7.1341
530 1 10.0557 27.3541 8.0258
531 1 9.5227 26.2112 8.9176
532 1 10.5886 28.4970 8.9176
533 1 7.7697 28.4201 8.0258
534 1 0.4560 27.6561 6.2423
535 1 3.2749 27.7331 7.1341
536 1 2.1319 28.2660 8.0258
537 1 1.5990 27.1231 8.9176
538 1 4.9509 28.3431 8.9176
539 1 7.3970 0.7639 10.7010
540 1 8.5399 0.2310 11.5928
541 1 10.2159 0.8410 9.8093
542 1 1.7591 0.6100 10.7010
543 1 0.6162 1.1429 11.5928
544 1 2.2921 1.7529 9.8093
545 1 4.5781 0.6869 9.8093
546 1 5.1110 1.8299 10.7010
547 1 2.9021 0.0770 11.5928
548 1 3.9681 2.3629 11.5928
549 1 5.6440 2.9729 9.8093
550 1 7.9299 1.9069 9.8093
551 1 8.4628 3.0499 10.7010
552 1 6.2540 1.2969 11.5928
553 1 7.3199 3.5829 11.5928
554 1 8.9959 4.1929 9.8093
555 1 9.6059 2.5169 11.5928
556 1 10.6718 4.8029 11.5928
557 1 0.0062 2.8188 9.8093
558 1 0.5391 3.9618 10.7010
559 1 2.8252 2.8958 10.7010
560 1 1.0721 5.1048 9.8093
561 1 3.3581 4.0388 9.8093
562 1 3.8910 5.1818 10.7010
563 1 1.6821 3.4288 11.5928
564 1 2.7481 5.7148 11.5928
565 1 6.1770 4.1158 10.7010
566 1 4.4240 6.3248 9.8093
567 1 6.7100 5.2588 9.8093
568 1 7.2429 6.4018 10.7010
569 1 5.0340 4.6488 11.5928
570 1 6.1000 6.9348 11.5928
571 1 9.5289 5.3358 10.7010
572 1 7.7759 7.5448 9.8093
573 1 10.0618 6.4788 9.8093
574 1 10.5948 7.6218 10.7010
575 1 8.3859 5.8688 11.5928
576 1 9.4518 8.1547 11.5928
577 1 1.6051 6.2478 10.7010
578 1 2.1381 7.3907 9.8093
579 1 2.6710 8.5337 10.7010
580 1 0.4621 6.7807 11.5928
581 1 1.5281 9.0667 11.5928
582 1 4.9570 7.4678 10.7010
583 1 3.2040 9.6766 9.8093
584 1 5.4900 8.6107 9.8093
585 1 6.0229 9.7537 10.7010
586 1 3.8140 8.0007 11.5928
587 1 4.8800 10.2866 11.5928
588 1 8.3089 8.6878 10.7010
589 1 6.5559 10.8966 9.8093
590 1 8.8418 9.8307 9.8093
591 1 9.3749 10.9737 10.7010
592 1 7.1659 9.2207 11.5928
593 1 8.2319 11.5066 11.5928
594 1 9.9078 12.1166 9.8093
595 1 10.5178 10.4407 11.5928
596 1 0.3852 9.5996 10.7010
597 1 0.9181 10.7426 9.8093
598 1 1.4510 11.8856 10.7010
599 1 3.7371 10.8196 10.7010
600 1 4.2700 11.9626 9.8093
601 1 4.8029 13.1056 10.7010
602 1 2.5940 11.3526 11.5928
603 1 7.0890 12.0396 10.7010
604 1 7.6219 13.1826 9.8093
605 1 8.1549 14.3256 10.7010
606 1 5.9459 12.5726 11.5928
607 1 10.4408 13.2596 10.7010
608 1 9.2978 13.7926 11.5928
609 1 0.3081 12.4185 11.5928
610 1 0.2310 15.2375 10.7010
611 1 1.9840 13.0285 9.8093
612 1 2.5171 14.1715 10.7010
613 1 3.6600 13.6385 11.5928
614 1 3.0500 15.3145 9.8093
615 1 3.5829 16.4575 10.7010
616 1 1.3741 14.7045 11.5928
617 1 5.3359 14.2485 9.8093
618 1 5.8690 15.3915 10.7010
619 1 7.0119 14.8585 11.5928
620 1 6.4019 16.5345 9.8093
621 1 6.9349 17.6775 10.7010
622 1 4.7259 15.9245 11.5928
623 1 8.6878 15.4685 9.8093
624 1 9.2209 16.6114 10.7010
625 1 10.3638 16.0785 11.5928
626 1 9.7538 17.7544 9.8093
627 1 10.2867 18.8974 10.7010
628 1 8.0778 17.1444 11.5928
629 1 0.7641 16.3804 9.8093
630 1 1.2971 17.5234 10.7010
631 1 2.4400 16.9904 11.5928
632 1 1.8300 18.6663 9.8093
633 1 2.3629 19.8093 10.7010
634 1 0.1541 18.0564 11.5928
635 1 4.1159 17.6004 9.8093
636 1 4.6490 18.7433 10.7010
637 1 5.7919 18.2104 11.5928
638 1 5.1819 19.8863 9.8093
639 1 5.7149 21.0294 10.7010
640 1 3.5059 19.2763 11.5928
641 1 7.4678 18.8204 9.8093
642 1 8.0009 19.9633 10.7010
643 1 9.1438 19.4304 11.5928
644 1 8.5338 21.1063 9.8093
645 1 9.0667 22.2493 10.7010
646 1 6.8578 20.4963 11.5928
647 1 10.2097 21.7163 11.5928
648 1 0.0771 20.8752 10.7010
649 1 1.2200 20.3423 11.5928
650 1 0.6100 22.0182 9.8093
651 1 2.8960 20.9523 9.8093
652 1 3.4290 22.0952 10.7010
653 1 4.5719 21.5623 11.5928
654 1 3.9619 23.2382 9.8093
655 1 2.2860 22.6282 11.5928
656 1 6.2478 22.1723 9.8093
657 1 6.7809 23.3152 10.7010
658 1 7.9238 22.7823 11.5928
659 1 7.3138 24.4582 9.8093
660 1 5.6378 23.8482 11.5928
661 1 9.5997 23.3923 9.8093
662 1 10.1328 24.5352 10.7010
663 1 10.6657 25.6782 9.8093
664 1 8.9897 25.0682 11.5928
665 1 1.1429 23.1612 10.7010
666 1 0.0000 23.6942 11.5928
667 1 1.6760 24.3042 9.8093
668 1 2.2090 25.4471 10.7010
669 1 4.4949 24.3813 10.7010
670 1 3.3519 24.9142 11.5928
671 1 2.7419 26.5901 9.8093
672 1 1.0660 25.9801 11.5928
673 1 5.0279 25.5242 9.8093
674 1 5.5609 26.6671 10.7010
675 1 7.8467 25.6012 10.7010
676 1 6.7038 26.1341 11.5928
677 1 6.0938 27.8101 9.8093
678 1 4.4179 27.2001 11.5928
679 1 8.3797 26.7441 9.8093
680 1 8.9128 27.8871 10.7010
681 1 10.0557 27.3541 11.5928
682 1 7.7697 28.4201 11.5928
683 1 0.4560 27.6561 9.8093
684 1 3.2749 27.7331 10.7010
685 1 2.1319 28.2660 11.5928
686 1 5.7210 0.1539 12.4846
687 1 7.3970 0.7639 14.2680
688 1 9.0729 1.3739 12.4846
689 1 8.5399 0.2310 15.1598
690 1 10.2159 0.8410 13.3763
691 1 0.0832 0.0000 12.4846
692 1 1.7591 0.6100 14.2680
693 1 0.6162 1.1429 15.1598
694 1 2.2921 1.7529 13.3763
695 1 4.5781 0.6869 13.3763
696 1 3.4351 1.2200 12.4846
697 1 5.1110 1.8299 14.2680
698 1 2.9021 0.0770 15.1598
699 1 3.9681 2.3629 15.1598
700 1 5.6440 2.9729 13.3763
701 1 7.9299 1.9069 13.3763
702 1 6.7870 2.4400 12.4846
703 1 8.4628 3.0499 14.2680
704 1 6.2540 1.2969 15.1598
705 1 7.3199 3.5829 15.1598
706 1 8.9959 4.1929 13.3763
707 1 10.1389 3.6600 12.4846
708 1 9.6059 2.5169 15.1598
709 1 10.6718 4.8029 15.1598
710 1 1.1491 2.2858 12.4846
711 1 0.0062 2.8188 13.3763
712 1 0.5391 3.9618 14.2680
713 1 2.8252 2.8958 14.2680
714 1 4.5010 3.5058 12.4846
715 1 1.0721 5.1048 13.3763
716 1 3.3581 4.0388 13.3763
717 1 2.2151 4.5719 12.4846
718 1 3.8910 5.1818 14.2680
719 1 1.6821 3.4288 15.1598
720 1 2.7481 5.7148 15.1598
721 1 6.1770 4.1158 14.2680
722 1 7.8529 4.7258 12.4846
723 1 4.4240 6.3248 13.3763
724 1 6.7100 5.2588 13.3763
725 1 5.5670 5.7919 12.4846
726 1 7.2429 6.4018 14.2680
727 1 5.0340 4.6488 15.1598
728 1 6.1000 6.9348 15.1598
729 1 9.5289 5.3358 14.2680
730 1 7.7759 7.5448 13.3763
731 1 10.0618 6.4788 13.3763
732 1 8.9189 7.0118 12.4846
733 1 10.5948 7.6218 14.2680
734 1 8.3859 5.8688 15.1598
735 1 9.4518 8.1547 15.1598
736 1 1.6051 6.2478 14.2680
737 1 3.2810 6.8578 12.4846
738 1 2.1381 7.3907 13.3763
739 1 0.9951 7.9238 12.4846
740 1 2.6710 8.5337 14.2680
741 1 0.4621 6.7807 15.1598
742 1 1.5281 9.0667 15.1598
743 1 4.9570 7.4678 14.2680
744 1 6.6329 8.0778 12.4846
745 1 3.2040 9.6766 13.3763
746 1 5.4900 8.6107 13.3763
747 1 4.3470 9.1437 12.4846
748 1 6.0229 9.7537 14.2680
749 1 3.8140 8.0007 15.1598
750 1 4.8800 10.2866 15.1598
751 1 8.3089 8.6878 14.2680
752 1 9.9848 9.2978 12.4846
753 1 6.5559 10.8966 13.3763
754 1 8.8418 9.8307 13.3763
755 1 7.6989 10.3637 12.4846
756 1 9.3749 10.9737 14.2680
757 1 7.1659 9.2207 15.1598
758 1 8.2319 11.5066 15.1598
759 1 9.9078 12.1166 13.3763
760 1 10.5178 10.4407 15.1598
761 1 0.3852 9.5996 14.2680
762 1 2.0610 10.2096 12.4846
763 1 0.9181 10.7426 13.3763
764 1 1.4510 11.8856 14.2680
765 1 3.7371 10.8196 14.2680
766 1 5.4129 11.4295 12.4846
767 1 4.2700 11.9626 13.3763
768 1 3.1270 12.4956 12.4846
769 1 4.8029 13.1056 14.2680
770 1 2.5940 11.3526 15.1598
771 1 7.0890 12.0396 14.2680
772 1 8.7649 12.6496 12.4846
773 1 7.6219 13.1826 13.3763
774 1 6.4789 13.7156 12.4846
775 1 8.1549 14.3256 14.2680
776 1 5.9459 12.5726 15.1598
777 1 10.4408 13.2596 14.2680
778 1 9.8308 14.9356 12.4846
779 1 9.2978 13.7926 15.1598
780 1 0.8410 13.5614 12.4846
781 1 0.3081 12.4185 15.1598
782 1 0.2310 15.2375 14.2680
783 1 1.9840 13.0285 13.3763
784 1 2.5171 14.1715 14.2680
785 1 4.1929 14.7814 12.4846
786 1 3.6600 13.6385 15.1598
787 1 3.0500 15.3145 13.3763
788 1 1.9071 15.8475 12.4846
789 1 3.5829 16.4575 14.2680
790 1 1.3741 14.7045 15.1598
791 1 5.3359 14.2485 13.3763
792 1 5.8690 15.3915 14.2680
793 1 7.5449 16.0014 12.4846
794 1 7.0119 14.8585 15.1598
795 1 6.4019 16.5345 13.3763
796 1 5.2589 17.0675 12.4846
797 1 6.9349 17.6775 14.2680
798 1 4.7259 15.9245 15.1598
799 1 8.6878 15.4685 13.3763
800 1 9.2209 16.6114 14.2680
801 1 10.3638 16.0785 15.1598
802 1 9.7538 17.7544 13.3763
803 1 8.6108 18.2875 12.4846
804 1 10.2867 18.8974 14.2680
805 1 8.0778 17.1444 15.1598
806 1 0.7641 16.3804 13.3763
807 1 1.2971 17.5234 14.2680
808 1 2.9729 18.1333 12.4846
809 1 2.4400 16.9904 15.1598
810 1 1.8300 18.6663 13.3763
811 1 0.6871 19.1994 12.4846
812 1 2.3629 19.8093 14.2680
813 1 0.1541 18.0564 15.1598
814 1 4.1159 17.6004 13.3763
815 1 4.6490 18.7433 14.2680
816 1 6.3249 19.3533 12.4846
817 1 5.7919 18.2104 15.1598
818 1 5.1819 19.8863 13.3763
819 1 4.0390 20.4194 12.4846
820 1 5.7149 21.0294 14.2680
821 1 3.5059 19.2763 15.1598
822 1 7.4678 18.8204 13.3763
823 1 8.0009 19.9633 14.2680
824 1 9.6767 20.5733 12.4846
825 1 9.1438 19.4304 15.1598
826 1 8.5338 21.1063 13.3763
827 1 7.3908 21.6394 12.4846
828 1 9.0667 22.2493 14.2680
829 1 6.8578 20.4963 15.1598
830 1 10.2097 21.7163 15.1598
831 1 0.0771 20.8752 14.2680
832 1 1.7530 21.4852 12.4846
833 1 1.2200 20.3423 15.1598
834 1 0.6100 22.0182 13.3763
835 1 2.8960 20.9523 13.3763
836 1 3.4290 22.0952 14.2680
837 1 5.1049 22.7052 12.4846
838 1 4.5719 21.5623 15.1598
839 1 3.9619 23.2382 13.3763
840 1 2.2860 22.6282 15.1598
841 1 6.2478 22.1723 13.3763
842 1 6.7809 23.3152 14.2680
843 1 8.4567 23.9252 12.4846
844 1 7.9238 22.7823 15.1598
845 1 7.3138 24.4582 13.3763
846 1 5.6378 23.8482 15.1598
847 1 9.5997 23.3923 13.3763
848 1 10.1328 24.5352 14.2680
849 1 10.6657 25.6782 13.3763
850 1 8.9897 25.0682 15.1598
851 1 1.1429 23.1612 14.2680
852 1 0.5330 24.8371 12.4846
853 1 0.0000 23.6942 15.1598
854 1 1.6760 24.3042 13.3763
855 1 2.8190 23.7713 12.4846
856 1 2.2090 25.4471 14.2680
857 1 4.4949 24.3813 14.2680
858 1 3.8850 26.0571 12.4846
859 1 3.3519 24.9142 15.1598
860 1 2.7419 26.5901 13.3763
861 1 1.0660 25.9801 15.1598
862 1 5.0279 25.5242 13.3763
863 1 6.1709 24.9912 12.4846
864 1 5.5609 26.6671 14.2680
865 1 7.8467 25.6012 14.2680
866 1 7.2367 27.2771 12.4846
867 1 6.7038 26.1341 15.1598
868 1 6.0938 27.8101 13.3763
869 1 4.4179 27.2001 15.1598
870 1 8.3797 26.7441 13.3763
871 1 9.5227 26.2112 12.4846
872 1 8.9128 27.8871 14.2680
873 1 10.5886 28.4970 12.4846
874 1 10.0557 27.3541 15.1598
875 1 7.7697 28.4201 15.1598
876 1 0.4560 27.6561 13.3763
877 1 1.5990 27.1231 12.4846
878 1 3.2749 27.7331 14.2680
879 1 2.1319 28.2660 15.1598
880 1 4.9509 28.3431 12.4846
881 1 5.7210 0.1539 16.0516
882 1 7.3970 0.7639 17.8350
883 1 9.0729 1.3739 16.0516
884 1 8.5399 0.2310 18.7268
885 1 10.2159 0.8410 16.9433
886 1 0.0832 0.0000 16.0516
887 1 1.7591 0.6100 17.8350
888 1 0.6162 1.1429 18.7268
889 1 2.2921 1.7529 16.9433
890 1 4.5781 0.6869 16.9433
891 1 3.4351 1.2200 16.0516
892 1 5.1110 1.8299 17.8350
893 1 2.9021 0.0770 18.7268
894 1 3.9681 2.3629 18.7268
895 1 5.6440 2.9729 16.9433
896 1 7.9299 1.9069 16.9433
897 1 6.7870 2.4400 16.0516
898 1 8.4628 3.0499 17.8350
899 1 6.2540 1.2969 18.7268
900 1 7.3199 3.5829 18.7268
901 1 8.9959 4.1929 16.9433
902 1 10.1389 3.6600 16.0516
903 1 9.6059 2.5169 18.7268
904 1 10.6718 4.8029 18.7268
905 1 1.1491 2.2858 16.0516
906 1 0.0062 2.8188 16.9433
907 1 0.5391 3.9618 17.8350
908 1 2.8252 2.8958 17.8350
909 1 4.5010 3.5058 16.0516
910 1 1.0721 5.1048 16.9433
911 1 3.3581 4.0388 16.9433
912 1 2.2151 4.5719 16.0516
913 1 3.8910 5.1818 17.8350
914 1 1.6821 3.4288 18.7268
915 1 2.7481 5.7148 18.7268
916 1 6.1770 4.1158 17.8350
917 1 7.8529 4.7258 16.0516
918 1 4.4240 6.3248 16.9433
919 1 6.7100 5.2588 16.9433
920 1 5.5670 5.7919 16.0516
921 1 7.2429 6.4018 17.8350
922 1 5.0340 4.6488 18.7268
923 1 6.1000 6.9348 18.7268
924 1 9.5289 5.3358 17.8350
925 1 7.7759 7.5448 16.9433
926 1 10.0618 6.4788 16.9433
927 1 8.9189 7.0118 16.0516
928 1 10.5948 7.6218 17.8350
929 1 8.3859 5.8688 18.7268
930 1 9.4518 8.1547 18.7268
931 1 1.6051 6.2478 17.8350
932 1 3.2810 6.8578 16.0516
933 1 2.1381 7.3907 16.9433
934 1 0.9951 7.9238 16.0516
935 1 2.6710 8.5337 17.8350
936 1 0.4621 6.7807 18.7268
937 1 1.5281 9.0667 18.7268
938 1 4.9570 7.4678 17.8350
939 1 6.6329 8.0778 16.0516
940 1 3.2040 9.6766 16.9433
941 1 5.4900 8.6107 16.9433
942 1 4.3470 9.1437 16.0516
943 1 6.0229 9.7537 17.8350
944 1 3.8140 8.0007 18.7268
945 1 4.8800 10.2866 18.7268
946 1 8.3089 8.6878 17.8350
947 1 9.9848 9.2978 16.0516
948 1 6.5559 10.8966 16.9433
949 1 8.8418 9.8307 16.9433
950 1 7.6989 10.3637 16.0516
951 1 9.3749 10.9737 17.8350
952 1 7.1659 9.2207 18.7268
953 1 8.2319 11.5066 18.7268
954 1 9.9078 12.1166 16.9433
955 1 10.5178 10.4407 18.7268
956 1 0.3852 9.5996 17.8350
957 1 2.0610 10.2096 16.0516
958 1 0.9181 10.7426 16.9433
959 1 1.4510 11.8856 17.8350
960 1 3.7371 10.8196 17.8350
961 1 5.4129 11.4295 16.0516
962 1 4.2700 11.9626 16.9433
963 1 3.1270 12.4956 16.0516
964 1 4.8029 13.1056 17.8350
965 1 2.5940 11.3526 18.7268
966 1 7.0890 12.0396 17.8350
967 1 8.7649 12.6496 16.0516
968 1 7.6219 13.1826 16.9433
969 1 6.4789 13.7156 16.0516
970 1 8.1549 14.3256 17.8350
971 1 5.9459 12.5726 18.7268
972 1 10.4408 13.2596 17.8350
973 1 9.8308 14.9356 16.0516
974 1 9.2978 13.7926 18.7268
975 1 0.8410 13.5614 16.0516
976 1 0.3081 12.4185 18.7268
977 1 0.2310 15.2375 17.8350
978 1 1.9840 13.0285 16.9433
979 1 2.5171 14.1715 17.8350
980 1 4.1929 14.7814 16.0516
981 1 3.6600 13.6385 18.7268
982 1 3.0500 15.3145 16.9433
983 1 1.9071 15.8475 16.0516
984 1 3.5829 16.4575 17.8350
985 1 1.3741 14.7045 18.7268
986 1 5.3359 14.2485 16.9433
987 1 5.8690 15.3915 17.8350
988 1 7.5449 16.0014 16.0516
989 1 7.0119 14.8585 18.7268
990 1 6.4019 16.5345 16.9433
991 1 5.2589 17.0675 16.0516
992 1 6.9349 17.6775 17.8350
993 1 4.7259 15.9245 18.7268
994 1 8.6878 15.4685 16.9433
995 1 9.2209 16.6114 17.8350
996 1 10.3638 16.0785 18.7268
997 1 9.7538 17.7544 16.9433
998 1 8.6108 18.2875 16.0516
999 1 10.2867 18.8974 17.8350
1000 1 8.0778 17.1444 18.7268
1001 1 0.7641 16.3804 16.9433
1002 1 1.2971 17.5234 17.8350
1003 1 2.9729 18.1333 16.0516
1004 1 2.4400 16.9904 18.7268
1005 1 1.8300 18.6663 16.9433
1006 1 0.6871 19.1994 16.0516
1007 1 2.3629 19.8093 17.8350
1008 1 0.1541 18.0564 18.7268
1009 1 4.1159 17.6004 16.9433
1010 1 4.6490 18.7433 17.8350
1011 1 6.3249 19.3533 16.0516
1012 1 5.7919 18.2104 18.7268
1013 1 5.1819 19.8863 16.9433
1014 1 4.0390 20.4194 16.0516
1015 1 5.7149 21.0294 17.8350
1016 1 3.5059 19.2763 18.7268
1017 1 7.4678 18.8204 16.9433
1018 1 8.0009 19.9633 17.8350
1019 1 9.6767 20.5733 16.0516
1020 1 9.1438 19.4304 18.7268
1021 1 8.5338 21.1063 16.9433
1022 1 7.3908 21.6394 16.0516
1023 1 9.0667 22.2493 17.8350
1024 1 6.8578 20.4963 18.7268
1025 1 10.2097 21.7163 18.7268
1026 1 0.0771 20.8752 17.8350
1027 1 1.7530 21.4852 16.0516
1028 1 1.2200 20.3423 18.7268
1029 1 0.6100 22.0182 16.9433
1030 1 2.8960 20.9523 16.9433
1031 1 3.4290 22.0952 17.8350
1032 1 5.1049 22.7052 16.0516
1033 1 4.5719 21.5623 18.7268
1034 1 3.9619 23.2382 16.9433
1035 1 2.2860 22.6282 18.7268
1036 1 6.2478 22.1723 16.9433
1037 1 6.7809 23.3152 17.8350
1038 1 8.4567 23.9252 16.0516
1039 1 7.9238 22.7823 18.7268
1040 1 7.3138 24.4582 16.9433
1041 1 5.6378 23.8482 18.7268
1042 1 9.5997 23.3923 16.9433
1043 1 10.1328 24.5352 17.8350
1044 1 10.6657 25.6782 16.9433
1045 1 8.9897 25.0682 18.7268
1046 1 1.1429 23.1612 17.8350
1047 1 0.5330 24.8371 16.0516
1048 1 0.0000 23.6942 18.7268
1049 1 1.6760 24.3042 16.9433
1050 1 2.8190 23.7713 16.0516
1051 1 2.2090 25.4471 17.8350
1052 1 4.4949 24.3813 17.8350
1053 1 3.8850 26.0571 16.0516
1054 1 3.3519 24.9142 18.7268
1055 1 2.7419 26.5901 16.9433
1056 1 1.0660 25.9801 18.7268
1057 1 5.0279 25.5242 16.9433
1058 1 6.1709 24.9912 16.0516
1059 1 5.5609 26.6671 17.8350
1060 1 7.8467 25.6012 17.8350