LAMMPS data file from restart file: timestep = 1, procs = 1

5832 atoms

3 atom types

-21.6535 21.6535 xlo xhi
0.0000 44.5807 ylo yhi
-50 71.34 zlo zhi

Masses

1 12.01
2 2
3 3

Atoms

1 1 0.0000 0.0000 0.0000
2 1 -1.2611 1.2611 1.7835
3 1 1.2611 1.2611 1.7835
4 1 0.0000 2.5222 0.0000
5 1 0.0000 1.2612 0.8918
6 1 0.0000 3.7833 0.8918
7 1 2.5222 2.5222 0.0000
8 1 1.2611 3.7834 1.7835
9 1 3.7834 3.7834 1.7835
10 1 2.5222 5.0445 0.0000
11 1 2.5222 3.7834 0.8918
12 1 2.5222 6.3056 0.8918
13 1 5.0445 5.0445 0.0000
14 1 3.7834 6.3056 1.7835
15 1 6.3056 6.3056 1.7835
16 1 5.0445 7.5667 0.0000
17 1 5.0445 6.3057 0.8918
18 1 5.0445 8.8278 0.8918
19 1 7.5667 7.5667 0.0000
20 1 6.3056 8.8279 1.7835
21 1 8.8279 8.8279 1.7835
22 1 7.5667 10.0890 0.0000
23 1 7.5667 8.8279 0.8918
24 1 7.5668 11.3501 0.8918
25 1 10.0890 10.0890 0.0000
26 1 8.8279 11.3501 1.7835
27 1 11.3501 11.3501 1.7835
28 1 10.0890 12.6112 0.0000
29 1 10.0890 11.3502 0.8918
30 1 10.0890 13.8723 0.8918
31 1 12.6112 12.6112 0.0000
32 1 11.3501 13.8724 1.7835
33 1 13.8724 13.8724 1.7835
34 1 12.6112 15.1335 0.0000
35 1 12.6112 13.8724 0.8918
36 1 12.6112 16.3946 0.8918
37 1 15.1335 15.1335 0.0000
38 1 13.8724 16.3946 1.7835
39 1 16.3946 16.3946 1.7835
40 1 15.1335 17.6557 0.0000
41 1 15.1335 16.3947 0.8918
42 1 15.1335 18.9168 0.8918
43 1 17.6557 17.6557 0.0000
44 1 16.3946 18.9169 1.7835
45 1 18.9169 18.9169 1.7835
46 1 17.6557 20.1780 0.0000
47 1 17.6557 18.9169 0.8918
48 1 17.6557 21.4391 0.8918
49 1 20.1780 20.1780 0.0000
50 1 18.9169 21.4391 1.7835
51 1 21.4391 21.4391 1.7835
52 1 20.1780 22.7002 0.0000
53 1 20.1780 21.4392 0.8918
54 1 20.1780 23.9613 0.8918
55 1 -2.5222 2.5222 0.0000
56 1 -3.7834 3.7834 1.7835
57 1 -1.2611 3.7834 1.7835
58 1 -2.5222 5.0445 0.0000
59 1 -2.5222 3.7834 0.8918
60 1 -2.5222 6.3056 0.8918
61 1 0.0000 5.0445 0.0000
62 1 -1.2611 6.3056 1.7835
63 1 1.2611 6.3056 1.7835
64 1 0.0000 7.5667 0.0000
65 1 0.0000 6.3057 0.8918
66 1 0.0000 8.8278 0.8918
67 1 2.5222 7.5667 0.0000
68 1 1.2611 8.8279 1.7835
69 1 3.7834 8.8279 1.7835
70 1 2.5222 10.0890 0.0000
71 1 2.5222 8.8279 0.8918
72 1 2.5222 11.3501 0.8918
73 1 5.0445 10.0890 0.0000
74 1 3.7834 11.3501 1.7835
75 1 6.3056 11.3501 1.7835
76 1 5.0445 12.6112 0.0000
77 1 5.0445 11.3502 0.8918
78 1 5.0446 13.8724 0.8918
79 1 7.5667 12.6112 0.0000
80 1 6.3056 13.8724 1.7835
81 1 8.8279 13.8724 1.7835
82 1 7.5667 15.1335 0.0000
83 1 7.5667 13.8724 0.8918
84 1 7.5667 16.3946 0.8918
85 1 10.0890 15.1335 0.0000
86 1 8.8279 16.3946 1.7835
87 1 11.3501 16.3946 1.7835
88 1 10.0890 17.6557 0.0000
89 1 10.0890 16.3947 0.8918
90 1 10.0890 18.9168 0.8918
91 1 12.6112 17.6557 0.0000
92 1 11.3501 18.9169 1.7835
93 1 13.8724 18.9169 1.7835
94 1 12.6112 20.1780 0.0000
95 1 12.6112 18.9169 0.8918
96 1 12.6112 21.4391 0.8918
97 1 15.1335 20.1780 0.0000
98 1 13.8724 21.4391 1.7835
99 1 16.3946 21.4391 1.7835
100 1 15.1335 22.7002 0.0000
101 1 15.1335 21.4392 0.8918
102 1 15.1335 23.9613 0.8918
103 1 17.6557 22.7002 0.0000
104 1 16.3946 23.9614 1.7835
105 1 18.9169 23.9614 1.7835
106 1 17.6557 25.2225 0.0000
107 1 17.6557 23.9614 0.8918
108 1 17.6557 26.4836 0.8918
109 1 -5.0445 5.0445 0.0000
110 1 -6.3056 6.3056 1.7835
111 1 -3.7834 6.3056 1.7835
112 1 -5.0445 7.5667 0.0000
113 1 -5.0445 6.3057 0.8918
114 1 -5.0445 8.8278 0.8918
115 1 -2.5222 7.5667 0.0000
116 1 -3.7834 8.8279 1.7835
117 1 -1.2611 8.8279 1.7835
118 1 -2.5222 10.0890 0.0000
119 1 -2.5222 8.8279 0.8918
120 1 -2.5222 11.3501 0.8918
121 1 0.0000 10.0890 0.0000
122 1 -1.2611 11.3501 1.7835
123 1 1.2611 11.3501 1.7835
124 1 0.0000 12.6112 0.0000
125 1 0.0000 11.3502 0.8918
126 1 0.0000 13.8723 0.8918
127 1 2.5222 12.6112 0.0000
128 1 1.2611 13.8724 1.7835
129 1 3.7834 13.8724 1.7835
130 1 2.5222 15.1335 0.0000
131 1 2.5222 13.8724 0.8918
132 1 2.5223 16.3946 0.8918
133 1 5.0445 15.1335 0.0000
134 1 3.7834 16.3946 1.7835
135 1 6.3056 16.3946 1.7835
136 1 5.0445 17.6557 0.0000
137 1 5.0445 16.3947 0.8918
138 1 5.0445 18.9168 0.8918
139 1 7.5667 17.6557 0.0000
140 1 6.3056 18.9169 1.7835
141 1 8.8279 18.9169 1.7835
142 1 7.5667 20.1780 0.0000
143 1 7.5667 18.9169 0.8918
144 1 7.5667 21.4391 0.8918
145 1 10.0890 20.1780 0.0000
146 1 8.8279 21.4391 1.7835
147 1 11.3501 21.4391 1.7835
148 1 10.0890 22.7002 0.0000
149 1 10.0890 21.4392 0.8918
150 1 10.0890 23.9613 0.8918
151 1 12.6112 22.7002 0.0000
152 1 11.3501 23.9614 1.7835
153 1 13.8724 23.9614 1.7835
154 1 12.6112 25.2225 0.0000
155 1 12.6112 23.9614 0.8918
156 1 12.6112 26.4836 0.8918
157 1 15.1335 25.2225 0.0000
158 1 13.8724 26.4836 1.7835
159 1 16.3946 26.4836 1.7835
160 1 15.1335 27.7447 0.0000
161 1 15.1335 26.4837 0.8918
162 1 15.1335 29.0058 0.8918
163 1 -7.5667 7.5667 0.0000
164 1 -8.8279 8.8279 1.7835
165 1 -6.3056 8.8279 1.7835
166 1 -7.5667 10.0890 0.0000
167 1 -7.5667 8.8279 0.8918
168 1 -7.5668 11.3501 0.8918
169 1 -5.0445 10.0890 0.0000
170 1 -6.3056 11.3501 1.7835
171 1 -3.7834 11.3501 1.7835
172 1 -5.0445 12.6112 0.0000
173 1 -5.0445 11.3502 0.8918
174 1 -5.0446 13.8724 0.8918
175 1 -2.5222 12.6112 0.0000
176 1 -3.7834 13.8724 1.7835
177 1 -1.2611 13.8724 1.7835
178 1 -2.5222 15.1335 0.0000
179 1 -2.5222 13.8724 0.8918
180 1 -2.5223 16.3946 0.8918
181 1 0.0000 15.1335 0.0000
182 1 -1.2611 16.3946 1.7835
183 1 1.2611 16.3946 1.7835
184 1 0.0000 17.6557 0.0000
185 1 0.0000 16.3947 0.8918
186 1 0.0000 18.9169 0.8918
187 1 2.5222 17.6557 0.0000
188 1 1.2611 18.9169 1.7835
189 1 3.7834 18.9169 1.7835
190 1 2.5222 20.1780 0.0000
191 1 2.5222 18.9169 0.8918
192 1 2.5222 21.4391 0.8918
193 1 5.0445 20.1780 0.0000
194 1 3.7834 21.4391 1.7835
195 1 6.3056 21.4391 1.7835
196 1 5.0445 22.7002 0.0000
197 1 5.0445 21.4392 0.8918
198 1 5.0444 23.9614 0.8918
199 1 7.5667 22.7002 0.0000
200 1 6.3056 23.9614 1.7835
201 1 8.8279 23.9614 1.7835
202 1 7.5667 25.2225 0.0000
203 1 7.5667 23.9614 0.8918
204 1 7.5667 26.4836 0.8918
205 1 10.0890 25.2225 0.0000
206 1 8.8279 26.4836 1.7835
207 1 11.3501 26.4836 1.7835
208 1 10.0890 27.7447 0.0000
209 1 10.0890 26.4837 0.8918
210 1 10.0889 29.0059 0.8918
211 1 12.6112 27.7447 0.0000
212 1 11.3501 29.0059 1.7835
213 1 13.8724 29.0059 1.7835
214 1 12.6112 30.2670 0.0000
215 1 12.6112 29.0059 0.8918
216 1 12.6112 31.5281 0.8918
217 1 -10.0890 10.0890 0.0000
218 1 -11.3501 11.3501 1.7835
219 1 -8.8279 11.3501 1.7835
220 1 -10.0890 12.6112 0.0000
221 1 -10.0890 11.3502 0.8918
222 1 -10.0890 13.8723 0.8918
223 1 -7.5667 12.6112 0.0000
224 1 -8.8279 13.8724 1.7835
225 1 -6.3056 13.8724 1.7835
226 1 -7.5667 15.1335 0.0000
227 1 -7.5667 13.8724 0.8918
228 1 -7.5667 16.3946 0.8918
229 1 -5.0445 15.1335 0.0000
230 1 -6.3056 16.3946 1.7835
231 1 -3.7834 16.3946 1.7835
232 1 -5.0445 17.6557 0.0000
233 1 -5.0445 16.3947 0.8918
234 1 -5.0445 18.9168 0.8918
235 1 -2.5222 17.6557 0.0000
236 1 -3.7834 18.9169 1.7835
237 1 -1.2611 18.9169 1.7835
238 1 -2.5222 20.1780 0.0000
239 1 -2.5222 18.9169 0.8918
240 1 -2.5222 21.4391 0.8918
241 1 0.0000 20.1780 0.0000
242 1 -1.2611 21.4391 1.7835
243 1 1.2611 21.4391 1.7835
244 1 0.0000 22.7002 0.0000
245 1 0.0000 21.4392 0.8918
246 1 0.0000 23.9613 0.8918
247 1 2.5222 22.7002 0.0000
248 1 1.2611 23.9614 1.7835
249 1 3.7834 23.9614 1.7835
250 1 2.5222 25.2225 0.0000
251 1 2.5222 23.9614 0.8918
252 1 2.5222 26.4836 0.8918
253 1 5.0445 25.2225 0.0000
254 1 3.7834 26.4836 1.7835
255 1 6.3056 26.4836 1.7835
256 1 5.0445 27.7447 0.0000
257 1 5.0445 26.4837 0.8918
258 1 5.0445 29.0058 0.8918
259 1 7.5667 27.7447 0.0000
260 1 6.3056 29.0059 1.7835
261 1 8.8279 29.0059 1.7835
262 1 7.5667 30.2670 0.0000
263 1 7.5667 29.0059 0.8918
264 1 7.5667 31.5281 0.8918
265 1 10.0890 30.2670 0.0000
266 1 8.8279 31.5281 1.7835
267 1 11.3501 31.5281 1.7835
268 1 10.0890 32.7892 0.0000
269 1 10.0890 31.5282 0.8918
270 1 10.0890 34.0503 0.8918
271 1 -12.6112 12.6112 0.0000
272 1 -13.8724 13.8724 1.7835
273 1 -11.3501 13.8724 1.7835
274 1 -12.6112 15.1335 0.0000
275 1 -12.6112 13.8724 0.8918
276 1 -12.6112 16.3946 0.8918
277 1 -10.0890 15.1335 0.0000
278 1 -11.3501 16.3946 1.7835
279 1 -8.8279 16.3946 1.7835
280 1 -10.0890 17.6557 0.0000
281 1 -10.0890 16.3947 0.8918
282 1 -10.0890 18.9168 0.8918
283 1 -7.5667 17.6557 0.0000
284 1 -8.8279 18.9169 1.7835
285 1 -6.3056 18.9169 1.7835
286 1 -7.5667 20.1780 0.0000
287 1 -7.5667 18.9169 0.8918
288 1 -7.5667 21.4391 0.8918
289 1 -5.0445 20.1780 0.0000
290 1 -6.3056 21.4391 1.7835
291 1 -3.7834 21.4391 1.7835
292 1 -5.0445 22.7002 0.0000
293 1 -5.0445 21.4392 0.8918
294 1 -5.0444 23.9614 0.8918
295 1 -2.5222 22.7002 0.0000
296 1 -3.7834 23.9614 1.7835
297 1 -1.2611 23.9614 1.7835
298 1 -2.5222 25.2225 0.0000
299 1 -2.5222 23.9614 0.8918
300 1 -2.5222 26.4836 0.8918
301 1 0.0000 25.2225 0.0000
302 1 -1.2611 26.4836 1.7835
303 1 1.2611 26.4836 1.7835
304 1 0.0000 27.7447 0.0000
305 1 0.0000 26.4837 0.8918
306 1 0.0000 29.0058 0.8918
307 1 2.5222 27.7447 0.0000
308 1 1.2611 29.0059 1.7835
309 1 3.7834 29.0059 1.7835
310 1 2.5222 30.2670 0.0000
311 1 2.5222 29.0059 0.8918
312 1 2.5222 31.5281 0.8918
313 1 5.0445 30.2670 0.0000
314 1 3.7834 31.5281 1.7835
315 1 6.3056 31.5281 1.7835
316 1 5.0445 32.7892 0.0000
317 1 5.0445 31.5282 0.8918
318 1 5.0445 34.0503 0.8918
319 1 7.5667 32.7892 0.0000
320 1 6.3056 34.0504 1.7835
321 1 8.8279 34.0504 1.7835
322 1 7.5667 35.3115 0.0000
323 1 7.5667 34.0504 0.8918
324 1 7.5667 36.5726 0.8918
325 1 -15.1335 15.1335 0.0000
326 1 -16.3946 16.3946 1.7835
327 1 -13.8724 16.3946 1.7835
328 1 -15.1335 17.6557 0.0000
329 1 -15.1335 16.3947 0.8918
330 1 -15.1335 18.9168 0.8918
331 1 -12.6112 17.6557 0.0000
332 1 -13.8724 18.9169 1.7835
333 1 -11.3501 18.9169 1.7835
334 1 -12.6112 20.1780 0.0000
335 1 -12.6112 18.9169 0.8918
336 1 -12.6112 21.4391 0.8918
337 1 -10.0890 20.1780 0.0000
338 1 -11.3501 21.4391 1.7835
339 1 -8.8279 21.4391 1.7835
340 1 -10.0890 22.7002 0.0000
341 1 -10.0890 21.4392 0.8918
342 1 -10.0890 23.9613 0.8918
343 1 -7.5667 22.7002 0.0000
344 1 -8.8279 23.9614 1.7835
345 1 -6.3056 23.9614 1.7835
346 1 -7.5667 25.2225 0.0000
347 1 -7.5667 23.9614 0.8918
348 1 -7.5667 26.4836 0.8918
349 1 -5.0445 25.2225 0.0000
350 1 -6.3056 26.4836 1.7835
351 1 -3.7834 26.4836 1.7835
352 1 -5.0445 27.7447 0.0000
353 1 -5.0445 26.4837 0.8918
354 1 -5.0445 29.0058 0.8918
355 1 -2.5222 27.7447 0.0000
356 1 -3.7834 29.0059 1.7835
357 1 -1.2611 29.0059 1.7835
358 1 -2.5222 30.2670 0.0000
359 1 -2.5222 29.0059 0.8918
360 1 -2.5222 31.5281 0.8918
361 1 0.0000 30.2670 0.0000
362 1 -1.2611 31.5281 1.7835
363 1 1.2611 31.5281 1.7835
364 1 0.0000 32.7892 0.0000
365 1 0.0000 31.5282 0.8918
366 1 0.0000 34.0503 0.8918
367 1 2.5222 32.7892 0.0000
368 1 1.2611 34.0504 1.7835
369 1 3.7834 34.0504 1.7835
370 1 2.5222 35.3115 0.0000
371 1 2.5222 34.0504 0.8918
372 1 2.5222 36.5726 0.8918
373 1 5.0445 35.3115 0.0000
374 1 3.7834 36.5726 1.7835
375 1 6.3056 36.5726 1.7835
376 1 5.0445 37.8337 0.0000
377 1 5.0445 36.5727 0.8918
378 1 5.0445 39.0948 0.8918
379 1 -17.6557 17.6557 0.0000
380 1 -18.9169 18.9169 1.7835
381 1 -16.3946 18.9169 1.7835
382 1 -17.6557 20.1780 0.0000
383 1 -17.6557 18.9169 0.8918
384 1 -17.6557 21.4391 0.8918
385 1 -15.1335 20.1780 0.0000
386 1 -16.3946 21.4391 1.7835
387 1 -13.8724 21.4391 1.7835
388 1 -15.1335 22.7002 0.0000
389 1 -15.1335 21.4392 0.8918
390 1 -15.1335 23.9613 0.8918
391 1 -12.6112 22.7002 0.0000
392 1 -13.8724 23.9614 1.7835
393 1 -11.3501 23.9614 1.7835
394 1 -12.6112 25.2225 0.0000
395 1 -12.6112 23.9614 0.8918
396 1 -12.6112 26.4836 0.8918
397 1 -10.0890 25.2225 0.0000
398 1 -11.3501 26.4836 1.7835
399 1 -8.8279 26.4836 1.7835
400 1 -10.0890 27.7447 0.0000
401 1 -10.0890 26.4837 0.8918
402 1 -10.0889 29.0059 0.8918
403 1 -7.5667 27.7447 0.0000
404 1 -8.8279 29.0059 1.7835
405 1 -6.3056 29.0059 1.7835
406 1 -7.5667 30.2670 0.0000
407 1 -7.5667 29.0059 0.8918
408 1 -7.5667 31.5281 0.8918
409 1 -5.0445 30.2670 0.0000
410 1 -6.3056 31.5281 1.7835
411 1 -3.7834 31.5281 1.7835
412 1 -5.0445 32.7892 0.0000
413 1 -5.0445 31.5282 0.8918
414 1 -5.0445 34.0503 0.8918
415 1 -2.5222 32.7892 0.0000
416 1 -3.7834 34.0504 1.7835
417 1 -1.2611 34.0504 1.7835
418 1 -2.5222 35.3115 0.0000
419 1 -2.5222 34.0504 0.8918
420 1 -2.5222 36.5726 0.8918
421 1 0.0000 35.3115 0.0000
422 1 -1.2611 36.5726 1.7835
423 1 1.2611 36.5726 1.7835
424 1 0.0000 37.8337 0.0000
425 1 0.0000 36.5727 0.8918
426 1 0.0000 39.0948 0.8918
427 1 2.5222 37.8337 0.0000
428 1 1.2611 39.0949 1.7835
429 1 3.7834 39.0949 1.7835
430 1 2.5222 40.3560 0.0000
431 1 2.5222 39.0949 0.8918
432 1 2.5222 41.6171 0.8918
433 1 -20.1780 20.1780 0.0000
434 1 -21.4391 21.4391 1.7835
435 1 -18.9169 21.4391 1.7835
436 1 -20.1780 22.7002 0.0000
437 1 -20.1780 21.4392 0.8918
438 1 -20.1780 23.9613 0.8918
439 1 -17.6557 22.7002 0.0000
440 1 -18.9169 23.9614 1.7835
441 1 -16.3946 23.9614 1.7835
442 1 -17.6557 25.2225 0.0000
443 1 -17.6557 23.9614 0.8918
444 1 -17.6557 26.4836 0.8918
445 1 -15.1335 25.2225 0.0000
446 1 -16.3946 26.4836 1.7835
447 1 -13.8724 26.4836 1.7835
448 1 -15.1335 27.7447 0.0000
449 1 -15.1335 26.4837 0.8918
450 1 -15.1335 29.0058 0.8918
451 1 -12.6112 27.7447 0.0000
452 1 -13.8724 29.0059 1.7835
453 1 -11.3501 29.0059 1.7835
454 1 -12.6112 30.2670 0.0000
455 1 -12.6112 29.0059 0.8918
456 1 -12.6112 31.5281 0.8918
457 1 -10.0890 30.2670 0.0000
458 1 -11.3501 31.5281 1.7835
459 1 -8.8279 31.5281 1.7835
460 1 -10.0890 32.7892 0.0000
461 1 -10.0890 31.5282 0.8918
462 1 -10.0890 34.0503 0.8918
463 1 -7.5667 32.7892 0.0000
464 1 -8.8279 34.0504 1.7835
465 1 -6.3056 34.0504 1.7835
466 1 -7.5667 35.3115 0.0000
467 1 -7.5667 34.0504 0.8918
468 1 -7.5667 36.5726 0.8918
469 1 -5.0445 35.3115 0.0000
470 1 -6.3056 36.5726 1.7835
471 1 -3.7834 36.5726 1.7835
472 1 -5.0445 37.8337 0.0000
473 1 -5.0445 36.5727 0.8918
474 1 -5.0445 39.0948 0.8918
475 1 -2.5222 37.8337 0.0000
476 1 -3.7834 39.0949 1.7835
477 1 -1.2611 39.0949 1.7835
478 1 -2.5222 40.3560 0.0000
479 1 -2.5222 39.0949 0.8918
480 1 -2.5222 41.6171 0.8918
481 1 0.0000 40.3560 0.0000
482 1 -1.2611 41.6171 1.7835
483 1 1.2611 41.6171 1.7835
484 1 0.0000 42.8782 0.0000
485 1 0.0000 41.6172 0.8918
486 1 0.0000 44.1393 0.8918
487 1 -1.2611 2.5222 2.6752
488 1 1.2611 2.5222 2.6752
489 1 0.0000 0.0000 3.5670
490 1 -1.2611 1.2611 5.3505
491 1 1.2611 1.2611 5.3505
492 1 0.0000 2.5222 3.5670
493 1 0.0000 1.2612 4.4588
494 1 0.0000 3.7833 4.4588
495 1 1.2612 5.0445 2.6752
496 1 3.7833 5.0445 2.6752
497 1 2.5222 2.5222 3.5670
498 1 1.2611 3.7834 5.3505
499 1 3.7834 3.7834 5.3505
500 1 2.5222 5.0445 3.5670
501 1 2.5222 3.7834 4.4588
502 1 2.5222 6.3056 4.4588
503 1 3.7834 7.5667 2.6752
504 1 6.3056 7.5667 2.6752
505 1 5.0445 5.0445 3.5670
506 1 3.7834 6.3056 5.3505
507 1 6.3056 6.3056 5.3505
508 1 5.0445 7.5667 3.5670
509 1 5.0445 6.3057 4.4588
510 1 5.0445 8.8278 4.4588
511 1 6.3057 10.0890 2.6752
512 1 8.8279 10.0891 2.6752
513 1 7.5667 7.5667 3.5670
514 1 6.3056 8.8279 5.3505
515 1 8.8279 8.8279 5.3505
516 1 7.5667 10.0890 3.5670
517 1 7.5667 8.8279 4.4588
518 1 7.5668 11.3501 4.4588
519 1 8.8279 12.6112 2.6752
520 1 11.3501 12.6112 2.6752
521 1 10.0890 10.0890 3.5670
522 1 8.8279 11.3501 5.3505
523 1 11.3501 11.3501 5.3505
524 1 10.0890 12.6112 3.5670
525 1 10.0890 11.3502 4.4588
526 1 10.0890 13.8723 4.4588
527 1 11.3502 15.1335 2.6752
528 1 13.8723 15.1335 2.6752
529 1 12.6112 12.6112 3.5670
530 1 11.3501 13.8724 5.3505
531 1 13.8724 13.8724 5.3505
532 1 12.6112 15.1335 3.5670
533 1 12.6112 13.8724 4.4588
534 1 12.6112 16.3946 4.4588
535 1 13.8724 17.6557 2.6752
536 1 16.3946 17.6557 2.6752
537 1 15.1335 15.1335 3.5670
538 1 13.8724 16.3946 5.3505
539 1 16.3946 16.3946 5.3505
540 1 15.1335 17.6557 3.5670
541 1 15.1335 16.3947 4.4588
542 1 15.1335 18.9168 4.4588
543 1 16.3947 20.1780 2.6752
544 1 18.9168 20.1780 2.6752
545 1 17.6557 17.6557 3.5670
546 1 16.3946 18.9169 5.3505
547 1 18.9169 18.9169 5.3505
548 1 17.6557 20.1780 3.5670
549 1 17.6557 18.9169 4.4588
550 1 17.6557 21.4391 4.4588
551 1 18.9169 22.7002 2.6752
552 1 21.4391 22.7002 2.6752
553 1 20.1780 20.1780 3.5670
554 1 18.9169 21.4391 5.3505
555 1 21.4391 21.4391 5.3505
556 1 20.1780 22.7002 3.5670
557 1 20.1780 21.4392 4.4588
558 1 20.1780 23.9613 4.4588
559 1 -3.7833 5.0445 2.6752
560 1 -1.2612 5.0445 2.6752
561 1 -2.5222 2.5222 3.5670
562 1 -3.7834 3.7834 5.3505
563 1 -1.2611 3.7834 5.3505
564 1 -2.5222 5.0445 3.5670
565 1 -2.5222 3.7834 4.4588
566 1 -2.5222 6.3056 4.4588
567 1 -1.2611 7.5667 2.6752
568 1 1.2611 7.5667 2.6752
569 1 0.0000 5.0445 3.5670
570 1 -1.2611 6.3056 5.3505
571 1 1.2611 6.3056 5.3505
572 1 0.0000 7.5667 3.5670
573 1 0.0000 6.3057 4.4588
574 1 0.0000 8.8278 4.4588
575 1 1.2612 10.0890 2.6752
576 1 3.7833 10.0890 2.6752
577 1 2.5222 7.5667 3.5670
578 1 1.2611 8.8279 5.3505
579 1 3.7834 8.8279 5.3505
580 1 2.5222 10.0890 3.5670
581 1 2.5222 8.8279 4.4588
582 1 2.5222 11.3501 4.4588
583 1 3.7834 12.6112 2.6752
584 1 6.3056 12.6113 2.6752
585 1 5.0445 10.0890 3.5670
586 1 3.7834 11.3501 5.3505
587 1 6.3056 11.3501 5.3505
588 1 5.0445 12.6112 3.5670
589 1 5.0445 11.3502 4.4588
590 1 5.0446 13.8724 4.4588
591 1 6.3057 15.1335 2.6752
592 1 8.8278 15.1335 2.6752
593 1 7.5667 12.6112 3.5670
594 1 6.3056 13.8724 5.3505
595 1 8.8279 13.8724 5.3505
596 1 7.5667 15.1335 3.5670
597 1 7.5667 13.8724 4.4588
598 1 7.5667 16.3946 4.4588
599 1 8.8279 17.6557 2.6752
600 1 11.3501 17.6557 2.6752
601 1 10.0890 15.1335 3.5670
602 1 8.8279 16.3946 5.3505
603 1 11.3501 16.3946 5.3505
604 1 10.0890 17.6557 3.5670
605 1 10.0890 16.3947 4.4588
606 1 10.0890 18.9168 4.4588
607 1 11.3502 20.1780 2.6752
608 1 13.8723 20.1780 2.6752
609 1 12.6112 17.6557 3.5670
610 1 11.3501 18.9169 5.3505
611 1 13.8724 18.9169 5.3505
612 1 12.6112 20.1780 3.5670
613 1 12.6112 18.9169 4.4588
614 1 12.6112 21.4391 4.4588
615 1 13.8724 22.7002 2.6752
616 1 16.3946 22.7002 2.6752
617 1 15.1335 20.1780 3.5670
618 1 13.8724 21.4391 5.3505
619 1 16.3946 21.4391 5.3505
620 1 15.1335 22.7002 3.5670
621 1 15.1335 21.4392 4.4588
622 1 15.1335 23.9613 4.4588
623 1 16.3947 25.2225 2.6752
624 1 18.9168 25.2225 2.6752
625 1 17.6557 22.7002 3.5670
626 1 16.3946 23.9614 5.3505
627 1 18.9169 23.9614 5.3505
628 1 17.6557 25.2225 3.5670
629 1 17.6557 23.9614 4.4588
630 1 17.6557 26.4836 4.4588
631 1 -6.3056 7.5667 2.6752
632 1 -3.7834 7.5667 2.6752
633 1 -5.0445 5.0445 3.5670
634 1 -6.3056 6.3056 5.3505
635 1 -3.7834 6.3056 5.3505
636 1 -5.0445 7.5667 3.5670
637 1 -5.0445 6.3057 4.4588
638 1 -5.0445 8.8278 4.4588
639 1 -3.7833 10.0890 2.6752
640 1 -1.2612 10.0890 2.6752
641 1 -2.5222 7.5667 3.5670
642 1 -3.7834 8.8279 5.3505
643 1 -1.2611 8.8279 5.3505
644 1 -2.5222 10.0890 3.5670
645 1 -2.5222 8.8279 4.4588
646 1 -2.5222 11.3501 4.4588
647 1 -1.2611 12.6112 2.6752
648 1 1.2611 12.6112 2.6752
649 1 0.0000 10.0890 3.5670
650 1 -1.2611 11.3501 5.3505
651 1 1.2611 11.3501 5.3505
652 1 0.0000 12.6112 3.5670
653 1 0.0000 11.3502 4.4588
654 1 0.0000 13.8723 4.4588
655 1 1.2612 15.1335 2.6752
656 1 3.7834 15.1336 2.6752
657 1 2.5222 12.6112 3.5670
658 1 1.2611 13.8724 5.3505
659 1 3.7834 13.8724 5.3505
660 1 2.5222 15.1335 3.5670
661 1 2.5222 13.8724 4.4588
662 1 2.5223 16.3946 4.4588
663 1 3.7834 17.6557 2.6752
664 1 6.3056 17.6557 2.6752
665 1 5.0445 15.1335 3.5670
666 1 3.7834 16.3946 5.3505
667 1 6.3056 16.3946 5.3505
668 1 5.0445 17.6557 3.5670
669 1 5.0445 16.3947 4.4588
670 1 5.0445 18.9168 4.4588
671 1 6.3057 20.1780 2.6752
672 1 8.8278 20.1780 2.6752
673 1 7.5667 17.6557 3.5670
674 1 6.3056 18.9169 5.3505
675 1 8.8279 18.9169 5.3505
676 1 7.5667 20.1780 3.5670
677 1 7.5667 18.9169 4.4588
678 1 7.5667 21.4391 4.4588
679 1 8.8279 22.7002 2.6752
680 1 11.3501 22.7002 2.6752
681 1 10.0890 20.1780 3.5670
682 1 8.8279 21.4391 5.3505
683 1 11.3501 21.4391 5.3505
684 1 10.0890 22.7002 3.5670
685 1 10.0890 21.4392 4.4588
686 1 10.0890 23.9613 4.4588
687 1 11.3502 25.2225 2.6752
688 1 13.8723 25.2225 2.6752
689 1 12.6112 22.7002 3.5670
690 1 11.3501 23.9614 5.3505
691 1 13.8724 23.9614 5.3505
692 1 12.6112 25.2225 3.5670
693 1 12.6112 23.9614 4.4588
694 1 12.6112 26.4836 4.4588
695 1 13.8724 27.7447 2.6752
696 1 16.3946 27.7447 2.6752
697 1 15.1335 25.2225 3.5670
698 1 13.8724 26.4836 5.3505
699 1 16.3946 26.4836 5.3505
700 1 15.1335 27.7447 3.5670
701 1 15.1335 26.4837 4.4588
702 1 15.1335 29.0058 4.4588
703 1 -8.8279 10.0891 2.6752
704 1 -6.3057 10.0890 2.6752
705 1 -7.5667 7.5667 3.5670
706 1 -8.8279 8.8279 5.3505
707 1 -6.3056 8.8279 5.3505
708 1 -7.5667 10.0890 3.5670
709 1 -7.5667 8.8279 4.4588
710 1 -7.5668 11.3501 4.4588
711 1 -6.3056 12.6113 2.6752
712 1 -3.7834 12.6112 2.6752
713 1 -5.0445 10.0890 3.5670
714 1 -6.3056 11.3501 5.3505
715 1 -3.7834 11.3501 5.3505
716 1 -5.0445 12.6112 3.5670
717 1 -5.0445 11.3502 4.4588
718 1 -5.0446 13.8724 4.4588
719 1 -3.7834 15.1336 2.6752
720 1 -1.2612 15.1335 2.6752
721 1 -2.5222 12.6112 3.5670
722 1 -3.7834 13.8724 5.3505
723 1 -1.2611 13.8724 5.3505
724 1 -2.5222 15.1335 3.5670
725 1 -2.5222 13.8724 4.4588
726 1 -2.5223 16.3946 4.4588
727 1 -1.2611 17.6558 2.6752
728 1 1.2611 17.6558 2.6752
729 1 0.0000 15.1335 3.5670
730 1 -1.2611 16.3946 5.3505
731 1 1.2611 16.3946 5.3505
732 1 0.0000 17.6557 3.5670
733 1 0.0000 16.3947 4.4588
734 1 0.0000 18.9169 4.4588
735 1 1.2611 20.1781 2.6752
736 1 3.7833 20.1780 2.6752
737 1 2.5222 17.6557 3.5670
738 1 1.2611 18.9169 5.3505
739 1 3.7834 18.9169 5.3505
740 1 2.5222 20.1780 3.5670
741 1 2.5222 18.9169 4.4588
742 1 2.5222 21.4391 4.4588
743 1 3.7834 22.7003 2.6752
744 1 6.3056 22.7002 2.6752
745 1 5.0445 20.1780 3.5670
746 1 3.7834 21.4391 5.3505
747 1 6.3056 21.4391 5.3505
748 1 5.0445 22.7002 3.5670
749 1 5.0445 21.4392 4.4588
750 1 5.0444 23.9614 4.4588
751 1 6.3056 25.2226 2.6752
752 1 8.8278 25.2225 2.6752
753 1 7.5667 22.7002 3.5670
754 1 6.3056 23.9614 5.3505
755 1 8.8279 23.9614 5.3505
756 1 7.5667 25.2225 3.5670
757 1 7.5667 23.9614 4.4588
758 1 7.5667 26.4836 4.4588
759 1 8.8279 27.7448 2.6752
760 1 11.3501 27.7447 2.6752
761 1 10.0890 25.2225 3.5670
762 1 8.8279 26.4836 5.3505
763 1 11.3501 26.4836 5.3505
764 1 10.0890 27.7447 3.5670
765 1 10.0890 26.4837 4.4588
766 1 10.0889 29.0059 4.4588
767 1 11.3501 30.2671 2.6752
768 1 13.8723 30.2670 2.6752
769 1 12.6112 27.7447 3.5670
770 1 11.3501 29.0059 5.3505
771 1 13.8724 29.0059 5.3505
772 1 12.6112 30.2670 3.5670
773 1 12.6112 29.0059 4.4588
774 1 12.6112 31.5281 4.4588
775 1 -11.3501 12.6112 2.6752
776 1 -8.8279 12.6112 2.6752
777 1 -10.0890 10.0890 3.5670
778 1 -11.3501 11.3501 5.3505
779 1 -8.8279 11.3501 5.3505
780 1 -10.0890 12.6112 3.5670
781 1 -10.0890 11.3502 4.4588
782 1 -10.0890 13.8723 4.4588
783 1 -8.8278 15.1335 2.6752
784 1 -6.3057 15.1335 2.6752
785 1 -7.5667 12.6112 3.5670
786 1 -8.8279 13.8724 5.3505
787 1 -6.3056 13.8724 5.3505
788 1 -7.5667 15.1335 3.5670
789 1 -7.5667 13.8724 4.4588
790 1 -7.5667 16.3946 4.4588
791 1 -6.3056 17.6557 2.6752
792 1 -3.7834 17.6557 2.6752
793 1 -5.0445 15.1335 3.5670
794 1 -6.3056 16.3946 5.3505
795 1 -3.7834 16.3946 5.3505
796 1 -5.0445 17.6557 3.5670
797 1 -5.0445 16.3947 4.4588
798 1 -5.0445 18.9168 4.4588
799 1 -3.7833 20.1780 2.6752
800 1 -1.2611 20.1781 2.6752
801 1 -2.5222 17.6557 3.5670
802 1 -3.7834 18.9169 5.3505
803 1 -1.2611 18.9169 5.3505
804 1 -2.5222 20.1780 3.5670
805 1 -2.5222 18.9169 4.4588
806 1 -2.5222 21.4391 4.4588
807 1 -1.2611 22.7002 2.6752
808 1 1.2611 22.7002 2.6752
809 1 0.0000 20.1780 3.5670
810 1 -1.2611 21.4391 5.3505
811 1 1.2611 21.4391 5.3505
812 1 0.0000 22.7002 3.5670
813 1 0.0000 21.4392 4.4588
814 1 0.0000 23.9613 4.4588
815 1 1.2612 25.2225 2.6752
816 1 3.7833 25.2225 2.6752
817 1 2.5222 22.7002 3.5670
818 1 1.2611 23.9614 5.3505
819 1 3.7834 23.9614 5.3505
820 1 2.5222 25.2225 3.5670
821 1 2.5222 23.9614 4.4588
822 1 2.5222 26.4836 4.4588
823 1 3.7834 27.7447 2.6752
824 1 6.3056 27.7447 2.6752
825 1 5.0445 25.2225 3.5670
826 1 3.7834 26.4836 5.3505
827 1 6.3056 26.4836 5.3505
828 1 5.0445 27.7447 3.5670
829 1 5.0445 26.4837 4.4588
830 1 5.0445 29.0058 4.4588
831 1 6.3057 30.2670 2.6752
832 1 8.8278 30.2670 2.6752
833 1 7.5667 27.7447 3.5670
834 1 6.3056 29.0059 5.3505
835 1 8.8279 29.0059 5.3505
836 1 7.5667 30.2670 3.5670
837 1 7.5667 29.0059 4.4588
838 1 7.5667 31.5281 4.4588
839 1 8.8279 32.7892 2.6752
840 1 11.3501 32.7892 2.6752
841 1 10.0890 30.2670 3.5670
842 1 8.8279 31.5281 5.3505
843 1 11.3501 31.5281 5.3505
844 1 10.0890 32.7892 3.5670
845 1 10.0890 31.5282 4.4588
846 1 10.0890 34.0503 4.4588
847 1 -13.8723 15.1335 2.6752
848 1 -11.3502 15.1335 2.6752
849 1 -12.6112 12.6112 3.5670
850 1 -13.8724 13.8724 5.3505
851 1 -11.3501 13.8724 5.3505
852 1 -12.6112 15.1335 3.5670
853 1 -12.6112 13.8724 4.4588
854 1 -12.6112 16.3946 4.4588
855 1 -11.3501 17.6557 2.6752
856 1 -8.8279 17.6557 2.6752
857 1 -10.0890 15.1335 3.5670
858 1 -11.3501 16.3946 5.3505
859 1 -8.8279 16.3946 5.3505
860 1 -10.0890 17.6557 3.5670
861 1 -10.0890 16.3947 4.4588
862 1 -10.0890 18.9168 4.4588
863 1 -8.8278 20.1780 2.6752
864 1 -6.3057 20.1780 2.6752
865 1 -7.5667 17.6557 3.5670
866 1 -8.8279 18.9169 5.3505
867 1 -6.3056 18.9169 5.3505
868 1 -7.5667 20.1780 3.5670
869 1 -7.5667 18.9169 4.4588
870 1 -7.5667 21.4391 4.4588
871 1 -6.3056 22.7002 2.6752
872 1 -3.7834 22.7003 2.6752
873 1 -5.0445 20.1780 3.5670
874 1 -6.3056 21.4391 5.3505
875 1 -3.7834 21.4391 5.3505
876 1 -5.0445 22.7002 3.5670
877 1 -5.0445 21.4392 4.4588
878 1 -5.0444 23.9614 4.4588
879 1 -3.7833 25.2225 2.6752
880 1 -1.2612 25.2225 2.6752
881 1 -2.5222 22.7002 3.5670
882 1 -3.7834 23.9614 5.3505
883 1 -1.2611 23.9614 5.3505
884 1 -2.5222 25.2225 3.5670
885 1 -2.5222 23.9614 4.4588
886 1 -2.5222 26.4836 4.4588
887 1 -1.2611 27.7447 2.6752
888 1 1.2611 27.7447 2.6752
889 1 0.0000 25.2225 3.5670
890 1 -1.2611 26.4836 5.3505
891 1 1.2611 26.4836 5.3505
892 1 0.0000 27.7447 3.5670
893 1 0.0000 26.4837 4.4588
894 1 0.0000 29.0058 4.4588
895 1 1.2612 30.2670 2.6752
896 1 3.7833 30.2670 2.6752
897 1 2.5222 27.7447 3.5670
898 1 1.2611 29.0059 5.3505
899 1 3.7834 29.0059 5.3505
900 1 2.5222 30.2670 3.5670
901 1 2.5222 29.0059 4.4588
902 1 2.5222 31.5281 4.4588
903 1 3.7834 32.7892 2.6752
904 1 6.3056 32.7892 2.6752
905 1 5.0445 30.2670 3.5670
906 1 3.7834 31.5281 5.3505
907 1 6.3056 31.5281 5.3505
908 1 5.0445 32.7892 3.5670
909 1 5.0445 31.5282 4.4588
910 1 5.0445 34.0503 4.4588
911 1 6.3057 35.3115 2.6752
912 1 8.8278 35.3115 2.6752
913 1 7.5667 32.7892 3.5670
914 1 6.3056 34.0504 5.3505
915 1 8.8279 34.0504 5.3505
916 1 7.5667 35.3115 3.5670
917 1 7.5667 34.0504 4.4588
918 1 7.5667 36.5726 4.4588
919 1 -16.3946 17.6557 2.6752
920 1 -13.8724 17.6557 2.6752
921 1 -15.1335 15.1335 3.5670
922 1 -16.3946 16.3946 5.3505
923 1 -13.8724 16.3946 5.3505
924 1 -15.1335 17.6557 3.5670
925 1 -15.1335 16.3947 4.4588
926 1 -15.1335 18.9168 4.4588
927 1 -13.8723 20.1780 2.6752
928 1 -11.3502 20.1780 2.6752
929 1 -12.6112 17.6557 3.5670
930 1 -13.8724 18.9169 5.3505
931 1 -11.3501 18.9169 5.3505
932 1 -12.6112 20.1780 3.5670
933 1 -12.6112 18.9169 4.4588
934 1 -12.6112 21.4391 4.4588
935 1 -11.3501 22.7002 2.6752
936 1 -8.8279 22.7002 2.6752
937 1 -10.0890 20.1780 3.5670
938 1 -11.3501 21.4391 5.3505
939 1 -8.8279 21.4391 5.3505
940 1 -10.0890 22.7002 3.5670
941 1 -10.0890 21.4392 4.4588
942 1 -10.0890 23.9613 4.4588
943 1 -8.8278 25.2225 2.6752
944 1 -6.3056 25.2226 2.6752
945 1 -7.5667 22.7002 3.5670
946 1 -8.8279 23.9614 5.3505
947 1 -6.3056 23.9614 5.3505
948 1 -7.5667 25.2225 3.5670
949 1 -7.5667 23.9614 4.4588
950 1 -7.5667 26.4836 4.4588
951 1 -6.3056 27.7447 2.6752
952 1 -3.7834 27.7447 2.6752
953 1 -5.0445 25.2225 3.5670
954 1 -6.3056 26.4836 5.3505
955 1 -3.7834 26.4836 5.3505
956 1 -5.0445 27.7447 3.5670
957 1 -5.0445 26.4837 4.4588
958 1 -5.0445 29.0058 4.4588
959 1 -3.7833 30.2670 2.6752
960 1 -1.2612 30.2670 2.6752
961 1 -2.5222 27.7447 3.5670
962 1 -3.7834 29.0059 5.3505
963 1 -1.2611 29.0059 5.3505
964 1 -2.5222 30.2670 3.5670
965 1 -2.5222 29.0059 4.4588
966 1 -2.5222 31.5281 4.4588
967 1 -1.2611 32.7892 2.6752
968 1 1.2611 32.7892 2.6752
969 1 0.0000 30.2670 3.5670
970 1 -1.2611 31.5281 5.3505
971 1 1.2611 31.5281 5.3505
972 1 0.0000 32.7892 3.5670
973 1 0.0000 31.5282 4.4588
974 1 0.0000 34.0503 4.4588
975 1 1.2612 35.3115 2.6752
976 1 3.7833 35.3115 2.6752
977 1 2.5222 32.7892 3.5670
978 1 1.2611 34.0504 5.3505
979 1 3.7834 34.0504 5.3505
980 1 2.5222 35.3115 3.5670
981 1 2.5222 34.0504 4.4588
982 1 2.5222 36.5726 4.4588
983 1 3.7834 37.8337 2.6752
984 1 6.3056 37.8337 2.6752
985 1 5.0445 35.3115 3.5670
986 1 3.7834 36.5726 5.3505
987 1 6.3056 36.5726 5.3505
988 1 5.0445 37.8337 3.5670
989 1 5.0445 36.5727 4.4588
990 1 5.0445 39.0948 4.4588
991 1 -18.9168 20.1780 2.6752
992 1 -16.3947 20.1780 2.6752
993 1 -17.6557 17.6557 3.5670
994 1 -18.9169 18.9169 5.3505
995 1 -16.3946 18.9169 5.3505
996 1 -17.6557 20.1780 3.5670
997 1 -17.6557 18.9169 4.4588
998 1 -17.6557 21.4391 4.4588
999 1 -16.3946 22.7002 2.6752
1000 1 -13.8724 22.7002 2.6752
1001 1 -15.1335 20.1780 3.5670
1002 1 -16.3946 21.4391 5.3505
1003 1 -13.8724 21.4391 5.3505
1004 1 -15.1335 22.7002 3.5670
1005 1 -15.1335 21.4392 4.4588
1006 1 -15.1335 23.9613 4.4588
1007 1 -13.8723 25.2225 2.6752
1008 1 -11.3502 25.2225 2.6752
1009 1 -12.6112 22.7002 3.5670
1010 1 -13.8724 23.9614 5.3505
1011 1 -11.3501 23.9614 5.3505
1012 1 -12.6112 25.2225 3.5670
1013 1 -12.6112 23.9614 4.4588
1014 1 -12.6112 26.4836 4.4588
1015 1 -11.3501 27.7447 2.6752
1016 1 -8.8279 27.7448 2.6752
1017 1 -10.0890 25.2225 3.5670
1018 1 -11.3501 26.4836 5.3505
1019 1 -8.8279 26.4836 5.3505
1020 1 -10.0890 27.7447 3.5670
1021 1 -10.0890 26.4837 4.4588
1022 1 -10.0889 29.0059 4.4588
1023 1 -8.8278 30.2670 2.6752
1024 1 -6.3057 30.2670 2.6752
1025 1 -7.5667 27.7447 3.5670
1026 1 -8.8279 29.0059 5.3505
1027 1 -6.3056 29.0059 5.3505
1028 1 -7.5667 30.2670 3.5670
1029 1 -7.5667 29.0059 4.4588
1030 1 -7.5667 31.5281 4.4588
1031 1 -6.3056 32.7892 2.6752
1032 1 -3.7834 32.7892 2.6752
1033 1 -5.0445 30.2670 3.5670
1034 1 -6.3056 31.5281 5.3505
1035 1 -3.7834 31.5281 5.3505
1036 1 -5.0445 32.7892 3.5670
1037 1 -5.0445 31.5282 4.4588
1038 1 -5.0445 34.0503 4.4588
1039 1 -3.7833 35.3115 2.6752
1040 1 -1.2612 35.3115 2.6752
1041 1 -2.5222 32.7892 3.5670
1042 1 -3.7834 34.0504 5.3505