1386
Atoms. Timestep. 0.0
1 0.0000 0.8917 0.0000
1 1.2611 1.7834 0.0000
1 2.5223 0.8917 2.5223
1 2.5223 0.8917 0.0000
1 2.5223 0.0000 1.2611
1 1.2611 2.6752 1.2611
1 3.7834 1.7834 0.0001
1 5.0445 0.8917 0.0000
1 3.7834 2.6752 1.2611
1 3.7834 1.7834 2.5222
1 5.0445 0.0000 1.2611
1 5.0445 0.8917 2.5223
1 6.3056 1.7834 2.5223
1 6.3056 1.7834 0.0000
1 6.3056 2.6752 1.2611
1 7.5668 0.8917 0.0000
1 7.5668 0.0000 1.2611
1 8.8279 1.7834 0.0001
1 7.5668 0.8917 2.5223
1 8.8279 1.7834 2.5222
1 10.0890 0.0000 1.2611
1 10.0890 0.8917 0.0000
1 8.8279 2.6752 1.2611
1 11.3501 1.7834 0.0000
1 0.0000 4.4587 0.0000
1 1.2611 5.3504 0.0000
1 2.5223 4.4587 2.5223
1 2.5223 4.4587 0.0000
1 2.5223 3.5670 1.2611
1 1.2611 6.2422 1.2611
1 3.7834 5.3504 0.0001
1 5.0445 4.4587 0.0000
1 3.7834 6.2422 1.2611
1 3.7834 5.3504 2.5222
1 5.0445 3.5670 1.2611
1 5.0445 4.4587 2.5223
1 6.3056 5.3504 2.5223
1 6.3056 5.3504 0.0000
1 6.3056 6.2422 1.2611
1 7.5668 4.4587 0.0000
1 7.5668 3.5670 1.2611
1 8.8279 5.3504 0.0001
1 7.5668 4.4587 2.5223
1 8.8279 5.3504 2.5222
1 10.0890 3.5670 1.2611
1 10.0890 4.4587 0.0000
1 8.8279 6.2422 1.2611
1 11.3501 5.3504 0.0000
1 0.0000 8.0257 0.0000
1 1.2611 8.9174 0.0000
1 2.5223 8.0257 2.5223
1 2.5223 8.0257 0.0000
1 2.5223 7.1340 1.2611
1 1.2611 9.8092 1.2611
1 3.7834 8.9174 0.0001
1 5.0445 8.0257 0.0000
1 3.7834 9.8092 1.2611
1 3.7834 8.9174 2.5222
1 5.0445 7.1340 1.2611
1 5.0445 8.0257 2.5223
1 6.3056 8.9174 2.5223
1 6.3056 8.9174 0.0000
1 6.3056 9.8092 1.2611
1 7.5668 8.0257 0.0000
1 7.5668 7.1340 1.2611
1 8.8279 8.9174 0.0001
1 7.5668 8.0257 2.5223
1 8.8279 8.9174 2.5222
1 10.0890 7.1340 1.2611
1 10.0890 8.0257 0.0000
1 8.8279 9.8092 1.2611
1 11.3501 8.9174 0.0000
1 0.0000 11.5927 0.0000
1 1.2611 12.4845 0.0000
1 2.5223 11.5927 2.5223
1 2.5223 11.5927 0.0000
1 2.5223 10.7010 1.2611
1 1.2611 13.3762 1.2611
1 3.7834 12.4845 0.0001
1 5.0445 11.5927 0.0000
1 3.7834 13.3762 1.2611
1 3.7834 12.4845 2.5222
1 5.0445 10.7010 1.2611
1 5.0445 11.5927 2.5223
1 6.3056 12.4845 2.5223
1 6.3056 12.4845 0.0000
1 6.3056 13.3762 1.2611
1 7.5668 11.5927 0.0000
1 7.5668 10.7010 1.2611
1 8.8279 12.4845 0.0001
1 7.5668 11.5927 2.5223
1 8.8279 12.4845 2.5222
1 10.0890 10.7010 1.2611
1 10.0890 11.5927 0.0000
1 8.8279 13.3762 1.2611
1 11.3501 12.4845 0.0000
1 0.0000 15.1597 0.0000
1 1.2611 16.0514 0.0000
1 2.5223 15.1597 2.5223
1 2.5223 15.1597 0.0000
1 2.5223 14.2680 1.2611
1 1.2611 16.9432 1.2611
1 3.7834 16.0514 0.0001
1 5.0445 15.1597 0.0000
1 3.7834 16.9432 1.2611
1 3.7834 16.0514 2.5222
1 5.0445 14.2680 1.2611
1 5.0445 15.1597 2.5223
1 6.3056 16.0514 2.5223
1 6.3056 16.0514 0.0000
1 6.3056 16.9432 1.2611
1 7.5668 15.1597 0.0000
1 7.5668 14.2680 1.2611
1 8.8279 16.0514 0.0001
1 7.5668 15.1597 2.5223
1 8.8279 16.0514 2.5222
1 10.0890 14.2680 1.2611
1 10.0890 15.1597 0.0000
1 8.8279 16.9432 1.2611
1 11.3501 16.0514 0.0000
1 0.0000 18.7267 0.0000
1 1.2611 19.6184 0.0000
1 2.5223 18.7267 2.5223
1 2.5223 18.7267 0.0000
1 2.5223 17.8350 1.2611
1 1.2611 20.5102 1.2611
1 3.7834 19.6184 0.0001
1 5.0445 18.7267 0.0000
1 3.7834 20.5102 1.2611
1 3.7834 19.6184 2.5222
1 5.0445 17.8350 1.2611
1 5.0445 18.7267 2.5223
1 6.3056 19.6184 2.5223
1 6.3056 19.6184 0.0000
1 6.3056 20.5102 1.2611
1 7.5668 18.7267 0.0000
1 7.5668 17.8350 1.2611
1 8.8279 19.6184 0.0001
1 7.5668 18.7267 2.5223
1 8.8279 19.6184 2.5222
1 10.0890 17.8350 1.2611
1 10.0890 18.7267 0.0000
1 8.8279 20.5102 1.2611
1 11.3501 19.6184 0.0000
1 0.0000 22.2937 0.0000
1 1.2611 23.1854 0.0000
1 2.5223 22.2937 2.5223
1 2.5223 22.2937 0.0000
1 2.5223 21.4020 1.2611
1 1.2611 24.0772 1.2611
1 3.7834 23.1854 0.0001
1 5.0445 22.2937 0.0000
1 3.7834 24.0772 1.2611
1 3.7834 23.1854 2.5222
1 5.0445 21.4020 1.2611
1 5.0445 22.2937 2.5223
1 6.3056 23.1854 2.5223
1 6.3056 23.1854 0.0000
1 6.3056 24.0772 1.2611
1 7.5668 22.2937 0.0000
1 7.5668 21.4020 1.2611
1 8.8279 23.1854 0.0001
1 7.5668 22.2937 2.5223
1 8.8279 23.1854 2.5222
1 10.0890 21.4020 1.2611
1 10.0890 22.2937 0.0000
1 8.8279 24.0772 1.2611
1 11.3501 23.1854 0.0000
1 0.0000 25.8607 0.0000
1 1.2611 26.7524 0.0000
1 2.5223 25.8607 2.5223
1 2.5223 25.8607 0.0000
1 2.5223 24.9690 1.2611
1 3.7834 26.7524 0.0001
1 5.0445 25.8607 0.0000
1 3.7834 26.7524 2.5222
1 5.0445 24.9690 1.2611
1 5.0445 25.8607 2.5223
1 6.3056 26.7524 2.5223
1 6.3056 26.7524 0.0000
1 7.5668 25.8607 0.0000
1 7.5668 24.9690 1.2611
1 8.8279 26.7524 0.0001
1 7.5668 25.8607 2.5223
1 8.8279 26.7524 2.5222
1 10.0890 24.9690 1.2611
1 10.0890 25.8607 0.0000
1 11.3501 26.7524 0.0000
1 5.0446 0.0000 3.7834
1 3.7834 2.6752 3.7834
1 5.0445 0.8917 5.0445
1 6.3056 1.7834 5.0445
1 6.3056 2.6752 3.7834
1 7.5667 0.0000 3.7834
1 5.0446 3.5670 3.7834
1 3.7834 6.2422 3.7834
1 5.0445 4.4587 5.0445
1 6.3056 5.3504 5.0445
1 6.3056 6.2422 3.7834
1 7.5667 3.5670 3.7834
1 5.0446 7.1340 3.7834
1 3.7834 9.8092 3.7834
1 5.0445 8.0257 5.0445
1 6.3056 8.9174 5.0445
1 6.3056 9.8092 3.7834
1 7.5667 7.1340 3.7834
1 5.0446 10.7010 3.7834
1 3.7834 13.3762 3.7834
1 5.0445 11.5927 5.0445
1 6.3056 12.4845 5.0445
1 6.3056 13.3762 3.7834
1 7.5667 10.7010 3.7834
1 5.0446 14.2680 3.7834
1 3.7834 16.9432 3.7834
1 5.0445 15.1597 5.0445
1 6.3056 16.0514 5.0445
1 6.3056 16.9432 3.7834
1 7.5667 14.2680 3.7834
1 5.0446 17.8350 3.7834
1 3.7834 20.5102 3.7834
1 5.0445 18.7267 5.0445
1 6.3056 19.6184 5.0445
1 6.3056 20.5102 3.7834
1 7.5667 17.8350 3.7834
1 5.0446 21.4020 3.7834
1 3.7834 24.0772 3.7834
1 5.0445 22.2937 5.0445
1 6.3056 23.1854 5.0445
1 6.3056 24.0772 3.7834
1 7.5667 21.4020 3.7834
1 5.0446 24.9690 3.7834
1 5.0445 25.8607 5.0445
1 6.3056 26.7524 5.0445
1 7.5667 24.9690 3.7834
1 0.0000 0.0000 10.2010
1 0.0000 1.7835 11.9845
1 1.7835 0.0000 11.9845
1 1.7835 1.7835 10.2010
1 0.8918 0.8918 11.0928
1 2.6752 2.6752 11.0928
1 3.5670 0.0000 10.2010
1 3.5670 1.7835 11.9845
1 5.3505 0.0000 11.9845
1 5.3505 1.7835 10.2010
1 4.4588 0.8918 11.0928
1 6.2422 2.6752 11.0928
1 7.1340 0.0000 10.2010
1 7.1340 1.7835 11.9845
1 8.9175 0.0000 11.9845
1 8.9175 1.7835 10.2010
1 8.0258 0.8918 11.0928
1 9.8092 2.6752 11.0928
1 10.7010 0.0000 10.2010
1 10.7010 1.7835 11.9845
1 12.4845 0.0000 11.9845
1 12.4845 1.7835 10.2010
1 11.5928 0.8918 11.0928
1 13.3763 2.6752 11.0928
1 14.2680 0.0000 10.2010
1 14.2680 1.7835 11.9845
1 16.0515 0.0000 11.9845
1 16.0515 1.7835 10.2010
1 15.1598 0.8918 11.0928
1 16.9432 2.6752 11.0928
1 17.8350 0.0000 10.2010
1 17.8350 1.7835 11.9845
1 19.6185 0.0000 11.9845
1 19.6185 1.7835 10.2010
1 18.7268 0.8918 11.0928
1 20.5102 2.6752 11.0928
1 0.0000 3.5670 10.2010
1 0.0000 5.3505 11.9845
1 1.7835 3.5670 11.9845
1 1.7835 5.3505 10.2010
1 0.8918 4.4588 11.0928
1 2.6752 6.2422 11.0928
1 3.5670 3.5670 10.2010
1 3.5670 5.3505 11.9845
1 5.3505 3.5670 11.9845
1 5.3505 5.3505 10.2010
1 4.4588 4.4588 11.0928
1 6.2422 6.2422 11.0928
1 7.1340 3.5670 10.2010
1 7.1340 5.3505 11.9845
1 8.9175 3.5670 11.9845
1 8.9175 5.3505 10.2010
1 8.0258 4.4588 11.0928
1 9.8092 6.2422 11.0928
1 10.7010 3.5670 10.2010
1 10.7010 5.3505 11.9845
1 12.4845 3.5670 11.9845
1 12.4845 5.3505 10.2010
1 11.5928 4.4588 11.0928
1 13.3763 6.2422 11.0928
1 14.2680 3.5670 10.2010
1 14.2680 5.3505 11.9845
1 16.0515 3.5670 11.9845
1 16.0515 5.3505 10.2010
1 15.1598 4.4588 11.0928
1 16.9432 6.2422 11.0928
1 17.8350 3.5670 10.2010
1 17.8350 5.3505 11.9845
1 19.6185 3.5670 11.9845
1 19.6185 5.3505 10.2010
1 18.7268 4.4588 11.0928
1 20.5102 6.2422 11.0928
1 0.0000 7.1340 10.2010
1 0.0000 8.9175 11.9845
1 1.7835 7.1340 11.9845
1 1.7835 8.9175 10.2010
1 0.8918 8.0258 11.0928
1 2.6752 9.8092 11.0928
1 3.5670 7.1340 10.2010
1 3.5670 8.9175 11.9845
1 5.3505 7.1340 11.9845
1 5.3505 8.9175 10.2010
1 4.4588 8.0258 11.0928
1 6.2422 9.8092 11.0928
1 7.1340 7.1340 10.2010
1 7.1340 8.9175 11.9845
1 8.9175 7.1340 11.9845
1 8.9175 8.9175 10.2010
1 8.0258 8.0258 11.0928
1 9.8092 9.8092 11.0928
1 10.7010 7.1340 10.2010
1 10.7010 8.9175 11.9845
1 12.4845 7.1340 11.9845
1 12.4845 8.9175 10.2010
1 11.5928 8.0258 11.0928
1 13.3763 9.8092 11.0928
1 14.2680 7.1340 10.2010
1 14.2680 8.9175 11.9845
1 16.0515 7.1340 11.9845
1 16.0515 8.9175 10.2010
1 15.1598 8.0258 11.0928
1 16.9432 9.8092 11.0928
1 17.8350 7.1340 10.2010
1 17.8350 8.9175 11.9845
1 19.6185 7.1340 11.9845
1 19.6185 8.9175 10.2010
1 18.7268 8.0258 11.0928
1 20.5102 9.8092 11.0928
1 0.0000 10.7010 10.2010
1 0.0000 12.4845 11.9845
1 1.7835 10.7010 11.9845
1 1.7835 12.4845 10.2010
1 0.8918 11.5928 11.0928
1 2.6752 13.3763 11.0928
1 3.5670 10.7010 10.2010
1 3.5670 12.4845 11.9845
1 5.3505 10.7010 11.9845
1 5.3505 12.4845 10.2010
1 4.4588 11.5928 11.0928
1 6.2422 13.3763 11.0928
1 7.1340 10.7010 10.2010
1 7.1340 12.4845 11.9845
1 8.9175 10.7010 11.9845
1 8.9175 12.4845 10.2010
1 8.0258 11.5928 11.0928
1 9.8092 13.3763 11.0928
1 10.7010 10.7010 10.2010
1 10.7010 12.4845 11.9845
1 12.4845 10.7010 11.9845
1 12.4845 12.4845 10.2010
1 11.5928 11.5928 11.0928
1 13.3763 13.3763 11.0928
1 14.2680 10.7010 10.2010
1 14.2680 12.4845 11.9845
1 16.0515 10.7010 11.9845
1 16.0515 12.4845 10.2010
1 15.1598 11.5928 11.0928
1 16.9432 13.3763 11.0928
1 17.8350 10.7010 10.2010
1 17.8350 12.4845 11.9845
1 19.6185 10.7010 11.9845
1 19.6185 12.4845 10.2010
1 18.7268 11.5928 11.0928
1 20.5102 13.3763 11.0928
1 0.0000 14.2680 10.2010
1 0.0000 16.0515 11.9845
1 1.7835 14.2680 11.9845
1 1.7835 16.0515 10.2010
1 0.8918 15.1598 11.0928
1 2.6752 16.9432 11.0928
1 3.5670 14.2680 10.2010
1 3.5670 16.0515 11.9845
1 5.3505 14.2680 11.9845
1 5.3505 16.0515 10.2010
1 4.4588 15.1598 11.0928
1 6.2422 16.9432 11.0928
1 7.1340 14.2680 10.2010
1 7.1340 16.0515 11.9845
1 8.9175 14.2680 11.9845
1 8.9175 16.0515 10.2010
1 8.0258 15.1598 11.0928
1 9.8092 16.9432 11.0928
1 10.7010 14.2680 10.2010
1 10.7010 16.0515 11.9845
1 12.4845 14.2680 11.9845
1 12.4845 16.0515 10.2010
1 11.5928 15.1598 11.0928
1 13.3763 16.9432 11.0928
1 14.2680 14.2680 10.2010
1 14.2680 16.0515 11.9845
1 16.0515 14.2680 11.9845
1 16.0515 16.0515 10.2010
1 15.1598 15.1598 11.0928
1 16.9432 16.9432 11.0928
1 17.8350 14.2680 10.2010
1 17.8350 16.0515 11.9845
1 19.6185 14.2680 11.9845
1 19.6185 16.0515 10.2010
1 18.7268 15.1598 11.0928
1 20.5102 16.9432 11.0928
1 0.0000 17.8350 10.2010
1 0.0000 19.6185 11.9845
1 1.7835 17.8350 11.9845
1 1.7835 19.6185 10.2010
1 0.8918 18.7268 11.0928
1 2.6752 20.5102 11.0928
1 3.5670 17.8350 10.2010
1 3.5670 19.6185 11.9845
1 5.3505 17.8350 11.9845
1 5.3505 19.6185 10.2010
1 4.4588 18.7268 11.0928
1 6.2422 20.5102 11.0928
1 7.1340 17.8350 10.2010
1 7.1340 19.6185 11.9845
1 8.9175 17.8350 11.9845
1 8.9175 19.6185 10.2010
1 8.0258 18.7268 11.0928
1 9.8092 20.5102 11.0928
1 10.7010 17.8350 10.2010
1 10.7010 19.6185 11.9845
1 12.4845 17.8350 11.9845
1 12.4845 19.6185 10.2010
1 11.5928 18.7268 11.0928
1 13.3763 20.5102 11.0928
1 14.2680 17.8350 10.2010
1 14.2680 19.6185 11.9845
1 16.0515 17.8350 11.9845
1 16.0515 19.6185 10.2010
1 15.1598 18.7268 11.0928
1 16.9432 20.5102 11.0928
1 17.8350 17.8350 10.2010
1 17.8350 19.6185 11.9845
1 19.6185 17.8350 11.9845
1 19.6185 19.6185 10.2010
1 18.7268 18.7268 11.0928
1 20.5102 20.5102 11.0928
1 0.0000 21.4020 10.2010
1 0.0000 23.1855 11.9845
1 1.7835 21.4020 11.9845
1 1.7835 23.1855 10.2010
1 0.8918 22.2938 11.0928
1 2.6752 24.0772 11.0928
1 3.5670 21.4020 10.2010
1 3.5670 23.1855 11.9845
1 5.3505 21.4020 11.9845
1 5.3505 23.1855 10.2010
1 4.4588 22.2938 11.0928
1 6.2422 24.0772 11.0928
1 7.1340 21.4020 10.2010
1 7.1340 23.1855 11.9845
1 8.9175 21.4020 11.9845
1 8.9175 23.1855 10.2010
1 8.0258 22.2938 11.0928
1 9.8092 24.0772 11.0928
1 10.7010 21.4020 10.2010
1 10.7010 23.1855 11.9845
1 12.4845 21.4020 11.9845
1 12.4845 23.1855 10.2010
1 11.5928 22.2938 11.0928
1 13.3763 24.0772 11.0928
1 14.2680 21.4020 10.2010
1 14.2680 23.1855 11.9845
1 16.0515 21.4020 11.9845
1 16.0515 23.1855 10.2010
1 15.1598 22.2938 11.0928
1 16.9432 24.0772 11.0928
1 17.8350 21.4020 10.2010
1 17.8350 23.1855 11.9845
1 19.6185 21.4020 11.9845
1 19.6185 23.1855 10.2010
1 18.7268 22.2938 11.0928
1 20.5102 24.0772 11.0928
1 0.0000 24.9690 10.2010
1 0.0000 26.7525 11.9845
1 1.7835 24.9690 11.9845
1 1.7835 26.7525 10.2010
1 0.8918 25.8608 11.0928
1 2.6752 27.6442 11.0928
1 3.5670 24.9690 10.2010
1 3.5670 26.7525 11.9845
1 5.3505 24.9690 11.9845
1 5.3505 26.7525 10.2010
1 4.4588 25.8608 11.0928
1 6.2422 27.6442 11.0928
1 7.1340 24.9690 10.2010
1 7.1340 26.7525 11.9845
1 8.9175 24.9690 11.9845
1 8.9175 26.7525 10.2010
1 8.0258 25.8608 11.0928
1 9.8092 27.6442 11.0928
1 10.7010 24.9690 10.2010
1 10.7010 26.7525 11.9845
1 12.4845 24.9690 11.9845
1 12.4845 26.7525 10.2010
1 11.5928 25.8608 11.0928
1 13.3763 27.6442 11.0928
1 14.2680 24.9690 10.2010
1 14.2680 26.7525 11.9845
1 16.0515 24.9690 11.9845
1 16.0515 26.7525 10.2010
1 15.1598 25.8608 11.0928
1 16.9432 27.6442 11.0928
1 17.8350 24.9690 10.2010
1 17.8350 26.7525 11.9845
1 19.6185 24.9690 11.9845
1 19.6185 26.7525 10.2010
1 18.7268 25.8608 11.0928
1 20.5102 27.6442 11.0928
1 0.8918 2.6752 12.8762
1 2.6752 0.8918 12.8762
1 0.0000 0.0000 13.7680
1 0.0000 1.7835 15.5515
1 1.7835 0.0000 15.5515
1 1.7835 1.7835 13.7680
1 0.8918 0.8918 14.6598
1 2.6752 2.6752 14.6598
1 4.4588 2.6752 12.8762
1 6.2422 0.8918 12.8762
1 3.5670 0.0000 13.7680
1 3.5670 1.7835 15.5515
1 5.3505 0.0000 15.5515
1 5.3505 1.7835 13.7680
1 4.4588 0.8918 14.6598
1 6.2422 2.6752 14.6598
1 8.0258 2.6752 12.8762
1 9.8092 0.8918 12.8762
1 7.1340 0.0000 13.7680
1 7.1340 1.7835 15.5515
1 8.9175 0.0000 15.5515
1 8.9175 1.7835 13.7680
1 8.0258 0.8918 14.6598
1 9.8092 2.6752 14.6598
1 11.5928 2.6752 12.8762
1 13.3763 0.8918 12.8762
1 10.7010 0.0000 13.7680
1 10.7010 1.7835 15.5515
1 12.4845 0.0000 15.5515
1 12.4845 1.7835 13.7680
1 11.5928 0.8918 14.6598
1 13.3763 2.6752 14.6598
1 15.1598 2.6752 12.8762
1 16.9432 0.8918 12.8762
1 14.2680 0.0000 13.7680
1 14.2680 1.7835 15.5515
1 16.0515 0.0000 15.5515
1 16.0515 1.7835 13.7680
1 15.1598 0.8918 14.6598
1 16.9432 2.6752 14.6598
1 18.7268 2.6752 12.8762
1 20.5102 0.8918 12.8762
1 17.8350 0.0000 13.7680
1 17.8350 1.7835 15.5515
1 19.6185 0.0000 15.5515
1 19.6185 1.7835 13.7680
1 18.7268 0.8918 14.6598
1 20.5102 2.6752 14.6598
1 0.8918 6.2422 12.8762
1 2.6752 4.4588 12.8762
1 0.0000 3.5670 13.7680
1 0.0000 5.3505 15.5515
1 1.7835 3.5670 15.5515
1 1.7835 5.3505 13.7680
1 0.8918 4.4588 14.6598
1 2.6752 6.2422 14.6598
1 4.4588 6.2422 12.8762
1 6.2422 4.4588 12.8762
1 3.5670 3.5670 13.7680
1 3.5670 5.3505 15.5515
1 5.3505 3.5670 15.5515
1 5.3505 5.3505 13.7680
1 4.4588 4.4588 14.6598
1 6.2422 6.2422 14.6598
1 8.0258 6.2422 12.8762
1 9.8092 4.4588 12.8762
1 7.1340 3.5670 13.7680
1 7.1340 5.3505 15.5515
1 8.9175 3.5670 15.5515
1 8.9175 5.3505 13.7680
1 8.0258 4.4588 14.6598
1 9.8092 6.2422 14.6598
1 11.5928 6.2422 12.8762
1 13.3763 4.4588 12.8762
1 10.7010 3.5670 13.7680
1 10.7010 5.3505 15.5515
1 12.4845 3.5670 15.5515
1 12.4845 5.3505 13.7680
1 11.5928 4.4588 14.6598
1 13.3763 6.2422 14.6598
1 15.1598 6.2422 12.8762
1 16.9432 4.4588 12.8762
1 14.2680 3.5670 13.7680
1 14.2680 5.3505 15.5515
1 16.0515 3.5670 15.5515
1 16.0515 5.3505 13.7680
1 15.1598 4.4588 14.6598
1 16.9432 6.2422 14.6598
1 18.7268 6.2422 12.8762
1 20.5102 4.4588 12.8762
1 17.8350 3.5670 13.7680
1 17.8350 5.3505 15.5515
1 19.6185 3.5670 15.5515
1 19.6185 5.3505 13.7680
1 18.7268 4.4588 14.6598
1 20.5102 6.2422 14.6598
1 0.8918 9.8092 12.8762
1 2.6752 8.0258 12.8762
1 0.0000 7.1340 13.7680
1 0.0000 8.9175 15.5515
1 1.7835 7.1340 15.5515
1 1.7835 8.9175 13.7680
1 0.8918 8.0258 14.6598
1 2.6752 9.8092 14.6598
1 4.4588 9.8092 12.8762
1 6.2422 8.0258 12.8762
1 3.5670 7.1340 13.7680
1 3.5670 8.9175 15.5515
1 5.3505 7.1340 15.5515
1 5.3505 8.9175 13.7680
1 4.4588 8.0258 14.6598
1 6.2422 9.8092 14.6598
1 8.0258 9.8092 12.8762
1 9.8092 8.0258 12.8762
1 7.1340 7.1340 13.7680
1 7.1340 8.9175 15.5515
1 8.9175 7.1340 15.5515
1 8.9175 8.9175 13.7680
1 8.0258 8.0258 14.6598
1 9.8092 9.8092 14.6598
1 11.5928 9.8092 12.8762
1 13.3763 8.0258 12.8762
1 10.7010 7.1340 13.7680
1 10.7010 8.9175 15.5515
1 12.4845 7.1340 15.5515
1 12.4845 8.9175 13.7680
1 11.5928 8.0258 14.6598
1 13.3763 9.8092 14.6598
1 15.1598 9.8092 12.8762
1 16.9432 8.0258 12.8762
1 14.2680 7.1340 13.7680
1 14.2680 8.9175 15.5515
1 16.0515 7.1340 15.5515
1 16.0515 8.9175 13.7680
1 15.1598 8.0258 14.6598
1 16.9432 9.8092 14.6598
1 18.7268 9.8092 12.8762
1 20.5102 8.0258 12.8762
1 17.8350 7.1340 13.7680
1 17.8350 8.9175 15.5515
1 19.6185 7.1340 15.5515
1 19.6185 8.9175 13.7680
1 18.7268 8.0258 14.6598
1 20.5102 9.8092 14.6598
1 0.8918 13.3763 12.8762
1 2.6752 11.5928 12.8762
1 0.0000 10.7010 13.7680
1 0.0000 12.4845 15.5515
1 1.7835 10.7010 15.5515
1 1.7835 12.4845 13.7680
1 0.8918 11.5928 14.6598
1 2.6752 13.3763 14.6598
1 4.4588 13.3763 12.8762
1 6.2422 11.5928 12.8762
1 3.5670 10.7010 13.7680
1 3.5670 12.4845 15.5515
1 5.3505 10.7010 15.5515
1 5.3505 12.4845 13.7680
1 4.4588 11.5928 14.6598
1 6.2422 13.3763 14.6598
1 8.0258 13.3763 12.8762
1 9.8092 11.5928 12.8762
1 7.1340 10.7010 13.7680
1 7.1340 12.4845 15.5515
1 8.9175 10.7010 15.5515
1 8.9175 12.4845 13.7680
1 8.0258 11.5928 14.6598
1 9.8092 13.3763 14.6598
1 11.5928 13.3763 12.8762
1 13.3763 11.5928 12.8762
1 10.7010 10.7010 13.7680
1 10.7010 12.4845 15.5515
1 12.4845 10.7010 15.5515
1 12.4845 12.4845 13.7680
1 11.5928 11.5928 14.6598
1 13.3763 13.3763 14.6598
1 15.1598 13.3763 12.8762
1 16.9432 11.5928 12.8762
1 14.2680 10.7010 13.7680
1 14.2680 12.4845 15.5515
1 16.0515 10.7010 15.5515
1 16.0515 12.4845 13.7680
1 15.1598 11.5928 14.6598
1 16.9432 13.3763 14.6598
1 18.7268 13.3763 12.8762
1 20.5102 11.5928 12.8762
1 17.8350 10.7010 13.7680
1 17.8350 12.4845 15.5515
1 19.6185 10.7010 15.5515
1 19.6185 12.4845 13.7680
1 18.7268 11.5928 14.6598
1 20.5102 13.3763 14.6598
1 0.8918 16.9432 12.8762
1 2.6752 15.1598 12.8762
1 0.0000 14.2680 13.7680
1 0.0000 16.0515 15.5515
1 1.7835 14.2680 15.5515
1 1.7835 16.0515 13.7680
1 0.8918 15.1598 14.6598
1 2.6752 16.9432 14.6598
1 4.4588 16.9432 12.8762
1 6.2422 15.1598 12.8762
1 3.5670 14.2680 13.7680
1 3.5670 16.0515 15.5515
1 5.3505 14.2680 15.5515
1 5.3505 16.0515 13.7680
1 4.4588 15.1598 14.6598
1 6.2422 16.9432 14.6598
1 8.0258 16.9432 12.8762
1 9.8092 15.1598 12.8762
1 7.1340 14.2680 13.7680
1 7.1340 16.0515 15.5515
1 8.9175 14.2680 15.5515
1 8.9175 16.0515 13.7680
1 8.0258 15.1598 14.6598
1 9.8092 16.9432 14.6598
1 11.5928 16.9432 12.8762
1 13.3763 15.1598 12.8762
1 10.7010 14.2680 13.7680
1 10.7010 16.0515 15.5515
1 12.4845 14.2680 15.5515
1 12.4845 16.0515 13.7680
1 11.5928 15.1598 14.6598
1 13.3763 16.9432 14.6598
1 15.1598 16.9432 12.8762
1 16.9432 15.1598 12.8762
1 14.2680 14.2680 13.7680
1 14.2680 16.0515 15.5515
1 16.0515 14.2680 15.5515
1 16.0515 16.0515 13.7680
1 15.1598 15.1598 14.6598
1 16.9432 16.9432 14.6598
1 18.7268 16.9432 12.8762
1 20.5102 15.1598 12.8762
1 17.8350 14.2680 13.7680
1 17.8350 16.0515 15.5515
1 19.6185 14.2680 15.5515
1 19.6185 16.0515 13.7680
1 18.7268 15.1598 14.6598
1 20.5102 16.9432 14.6598
1 0.8918 20.5102 12.8762
1 2.6752 18.7268 12.8762
1 0.0000 17.8350 13.7680
1 0.0000 19.6185 15.5515
1 1.7835 17.8350 15.5515
1 1.7835 19.6185 13.7680
1 0.8918 18.7268 14.6598
1 2.6752 20.5102 14.6598
1 4.4588 20.5102 12.8762
1 6.2422 18.7268 12.8762
1 3.5670 17.8350 13.7680
1 3.5670 19.6185 15.5515
1 5.3505 17.8350 15.5515
1 5.3505 19.6185 13.7680
1 4.4588 18.7268 14.6598
1 6.2422 20.5102 14.6598
1 8.0258 20.5102 12.8762
1 9.8092 18.7268 12.8762
1 7.1340 17.8350 13.7680
1 7.1340 19.6185 15.5515
1 8.9175 17.8350 15.5515
1 8.9175 19.6185 13.7680
1 8.0258 18.7268 14.6598
1 9.8092 20.5102 14.6598
1 11.5928 20.5102 12.8762
1 13.3763 18.7268 12.8762
1 10.7010 17.8350 13.7680
1 10.7010 19.6185 15.5515
1 12.4845 17.8350 15.5515
1 12.4845 19.6185 13.7680
1 11.5928 18.7268 14.6598
1 13.3763 20.5102 14.6598
1 15.1598 20.5102 12.8762
1 16.9432 18.7268 12.8762
1 14.2680 17.8350 13.7680
1 14.2680 19.6185 15.5515
1 16.0515 17.8350 15.5515
1 16.0515 19.6185 13.7680
1 15.1598 18.7268 14.6598
1 16.9432 20.5102 14.6598
1 18.7268 20.5102 12.8762
1 20.5102 18.7268 12.8762
1 17.8350 17.8350 13.7680
1 17.8350 19.6185 15.5515
1 19.6185 17.8350 15.5515
1 19.6185 19.6185 13.7680
1 18.7268 18.7268 14.6598
1 20.5102 20.5102 14.6598
1 0.8918 24.0772 12.8762
1 2.6752 22.2938 12.8762
1 0.0000 21.4020 13.7680
1 0.0000 23.1855 15.5515
1 1.7835 21.4020 15.5515
1 1.7835 23.1855 13.7680
1 0.8918 22.2938 14.6598
1 2.6752 24.0772 14.6598
1 4.4588 24.0772 12.8762
1 6.2422 22.2938 12.8762
1 3.5670 21.4020 13.7680
1 3.5670 23.1855 15.5515
1 5.3505 21.4020 15.5515
1 5.3505 23.1855 13.7680
1 4.4588 22.2938 14.6598
1 6.2422 24.0772 14.6598
1 8.0258 24.0772 12.8762
1 9.8092 22.2938 12.8762
1 7.1340 21.4020 13.7680
1 7.1340 23.1855 15.5515
1 8.9175 21.4020 15.5515
1 8.9175 23.1855 13.7680
1 8.0258 22.2938 14.6598
1 9.8092 24.0772 14.6598
1 11.5928 24.0772 12.8762
1 13.3763 22.2938 12.8762
1 10.7010 21.4020 13.7680
1 10.7010 23.1855 15.5515
1 12.4845 21.4020 15.5515
1 12.4845 23.1855 13.7680
1 11.5928 22.2938 14.6598
1 13.3763 24.0772 14.6598
1 15.1598 24.0772 12.8762
1 16.9432 22.2938 12.8762
1 14.2680 21.4020 13.7680
1 14.2680 23.1855 15.5515
1 16.0515 21.4020 15.5515
1 16.0515 23.1855 13.7680
1 15.1598 22.2938 14.6598
1 16.9432 24.0772 14.6598
1 18.7268 24.0772 12.8762
1 20.5102 22.2938 12.8762
1 17.8350 21.4020 13.7680
1 17.8350 23.1855 15.5515
1 19.6185 21.4020 15.5515
1 19.6185 23.1855 13.7680
1 18.7268 22.2938 14.6598
1 20.5102 24.0772 14.6598
1 0.8918 27.6442 12.8762
1 2.6752 25.8608 12.8762
1 0.0000 24.9690 13.7680
1 0.0000 26.7525 15.5515
1 1.7835 24.9690 15.5515
1 1.7835 26.7525 13.7680
1 0.8918 25.8608 14.6598
1 2.6752 27.6442 14.6598
1 4.4588 27.6442 12.8762
1 6.2422 25.8608 12.8762
1 3.5670 24.9690 13.7680
1 3.5670 26.7525 15.5515
1 5.3505 24.9690 15.5515
1 5.3505 26.7525 13.7680
1 4.4588 25.8608 14.6598
1 6.2422 27.6442 14.6598
1 8.0258 27.6442 12.8762
1 9.8092 25.8608 12.8762
1 7.1340 24.9690 13.7680
1 7.1340 26.7525 15.5515
1 8.9175 24.9690 15.5515
1 8.9175 26.7525 13.7680
1 8.0258 25.8608 14.6598
1 9.8092 27.6442 14.6598
1 11.5928 27.6442 12.8762
1 13.3763 25.8608 12.8762
1 10.7010 24.9690 13.7680
1 10.7010 26.7525 15.5515
1 12.4845 24.9690 15.5515
1 12.4845 26.7525 13.7680
1 11.5928 25.8608 14.6598
1 13.3763 27.6442 14.6598
1 15.1598 27.6442 12.8762
1 16.9432 25.8608 12.8762
1 14.2680 24.9690 13.7680
1 14.2680 26.7525 15.5515
1 16.0515 24.9690 15.5515
1 16.0515 26.7525 13.7680
1 15.1598 25.8608 14.6598
1 16.9432 27.6442 14.6598
1 18.7268 27.6442 12.8762
1 20.5102 25.8608 12.8762
1 17.8350 24.9690 13.7680
1 17.8350 26.7525 15.5515
1 19.6185 24.9690 15.5515
1 19.6185 26.7525 13.7680
1 18.7268 25.8608 14.6598
1 20.5102 27.6442 14.6598
1 0.8918 2.6752 16.4432
1 2.6752 0.8918 16.4432
1 0.0000 0.0000 17.3350
1 1.7835 1.7835 17.3350
1 0.8918 0.8918 18.2268
1 2.6752 2.6752 18.2268
1 4.4588 2.6752 16.4432
1 6.2422 0.8918 16.4432
1 3.5670 0.0000 17.3350
1 5.3505 1.7835 17.3350
1 4.4588 0.8918 18.2268
1 6.2422 2.6752 18.2268
1 8.0258 2.6752 16.4432
1 9.8092 0.8918 16.4432
1 7.1340 0.0000 17.3350
1 8.9175 1.7835 17.3350
1 8.0258 0.8918 18.2268
1 9.8092 2.6752 18.2268
1 11.5928 2.6752 16.4432
1 13.3763 0.8918 16.4432
1 10.7010 0.0000 17.3350
1 12.4845 1.7835 17.3350
1 11.5928 0.8918 18.2268
1 13.3763 2.6752 18.2268
1 15.1598 2.6752 16.4432
1 16.9432 0.8918 16.4432
1 14.2680 0.0000 17.3350
1 16.0515 1.7835 17.3350
1 15.1598 0.8918 18.2268
1 16.9432 2.6752 18.2268
1 18.7268 2.6752 16.4432
1 20.5102 0.8918 16.4432
1 17.8350 0.0000 17.3350
1 19.6185 1.7835 17.3350
1 18.7268 0.8918 18.2268
1 20.5102 2.6752 18.2268
1 0.8918 6.2422 16.4432
1 2.6752 4.4588 16.4432
1 0.0000 3.5670 17.3350
1 1.7835 5.3505 17.3350
1 0.8918 4.4588 18.2268
1 2.6752 6.2422 18.2268
1 4.4588 6.2422 16.4432
1 6.2422 4.4588 16.4432
1 3.5670 3.5670 17.3350
1 5.3505 5.3505 17.3350
1 4.4588 4.4588 18.2268
1 6.2422 6.2422 18.2268
1 8.0258 6.2422 16.4432
1 9.8092 4.4588 16.4432
1 7.1340 3.5670 17.3350
1 8.9175 5.3505 17.3350
1 8.0258 4.4588 18.2268
1 9.8092 6.2422 18.2268
1 11.5928 6.2422 16.4432
1 13.3763 4.4588 16.4432
1 10.7010 3.5670 17.3350
1 12.4845 5.3505 17.3350
1 11.5928 4.4588 18.2268
1 13.3763 6.2422 18.2268
1 15.1598 6.2422 16.4432
1 16.9432 4.4588 16.4432
1 14.2680 3.5670 17.3350
1 16.0515 5.3505 17.3350
1 15.1598 4.4588 18.2268
1 16.9432 6.2422 18.2268
1 18.7268 6.2422 16.4432
1 20.5102 4.4588 16.4432
1 17.8350 3.5670 17.3350
1 19.6185 5.3505 17.3350
1 18.7268 4.4588 18.2268
1 20.5102 6.2422 18.2268
1 0.8918 9.8092 16.4432
1 2.6752 8.0258 16.4432
1 0.0000 7.1340 17.3350
1 1.7835 8.9175 17.3350
1 0.8918 8.0258 18.2268
1 2.6752 9.8092 18.2268
1 4.4588 9.8092 16.4432
1 6.2422 8.0258 16.4432
1 3.5670 7.1340 17.3350
1 5.3505 8.9175 17.3350
1 4.4588 8.0258 18.2268
1 6.2422 9.8092 18.2268
1 8.0258 9.8092 16.4432
1 9.8092 8.0258 16.4432
1 7.1340 7.1340 17.3350
1 8.9175 8.9175 17.3350
1 8.0258 8.0258 18.2268
1 9.8092 9.8092 18.2268
1 11.5928 9.8092 16.4432
1 13.3763 8.0258 16.4432
1 10.7010 7.1340 17.3350
1 12.4845 8.9175 17.3350
1 11.5928 8.0258 18.2268
1 13.3763 9.8092 18.2268
1 15.1598 9.8092 16.4432
1 16.9432 8.0258 16.4432
1 14.2680 7.1340 17.3350
1 16.0515 8.9175 17.3350
1 15.1598 8.0258 18.2268
1 16.9432 9.8092 18.2268
1 18.7268 9.8092 16.4432
1 20.5102 8.0258 16.4432
1 17.8350 7.1340 17.3350
1 19.6185 8.9175 17.3350
1 18.7268 8.0258 18.2268
1 20.5102 9.8092 18.2268
1 0.8918 13.3763 16.4432
1 2.6752 11.5928 16.4432
1 0.0000 10.7010 17.3350
1 1.7835 12.4845 17.3350
1 0.8918 11.5928 18.2268
1 2.6752 13.3763 18.2268
1 4.4588 13.3763 16.4432
1 6.2422 11.5928 16.4432
1 3.5670 10.7010 17.3350
1 5.3505 12.4845 17.3350
1 4.4588 11.5928 18.2268
1 6.2422 13.3763 18.2268
1 8.0258 13.3763 16.4432
1 9.8092 11.5928 16.4432
1 7.1340 10.7010 17.3350
1 8.9175 12.4845 17.3350
1 8.0258 11.5928 18.2268
1 9.8092 13.3763 18.2268
1 11.5928 13.3763 16.4432
1 13.3763 11.5928 16.4432
1 10.7010 10.7010 17.3350
1 12.4845 12.4845 17.3350
1 11.5928 11.5928 18.2268
1 13.3763 13.3763 18.2268
1 15.1598 13.3763 16.4432
1 16.9432 11.5928 16.4432
1 14.2680 10.7010 17.3350
1 16.0515 12.4845 17.3350
1 15.1598 11.5928 18.2268
1 16.9432 13.3763 18.2268
1 18.7268 13.3763 16.4432
1 20.5102 11.5928 16.4432
1 17.8350 10.7010 17.3350
1 19.6185 12.4845 17.3350
1 18.7268 11.5928 18.2268
1 20.5102 13.3763 18.2268
1 0.8918 16.9432 16.4432
1 2.6752 15.1598 16.4432
1 0.0000 14.2680 17.3350
1 1.7835 16.0515 17.3350
1 0.8918 15.1598 18.2268
1 2.6752 16.9432 18.2268
1 4.4588 16.9432 16.4432
1 6.2422 15.1598 16.4432
1 3.5670 14.2680 17.3350
1 5.3505 16.0515 17.3350
1 4.4588 15.1598 18.2268
1 6.2422 16.9432 18.2268
1 8.0258 16.9432 16.4432
1 9.8092 15.1598 16.4432
1 7.1340 14.2680 17.3350
1 8.9175 16.0515 17.3350
1 8.0258 15.1598 18.2268
1 9.8092 16.9432 18.2268
1 11.5928 16.9432 16.4432
1 13.3763 15.1598 16.4432
1 10.7010 14.2680 17.3350
1 12.4845 16.0515 17.3350
1 11.5928 15.1598 18.2268
1 13.3763 16.9432 18.2268
1 15.1598 16.9432 16.4432
1 16.9432 15.1598 16.4432
1 14.2680 14.2680 17.3350
1 16.0515 16.0515 17.3350
1 15.1598 15.1598 18.2268
1 16.9432 16.9432 18.2268
1 18.7268 16.9432 16.4432
1 20.5102 15.1598 16.4432
1 17.8350 14.2680 17.3350
1 19.6185 16.0515 17.3350
1 18.7268 15.1598 18.2268
1 20.5102 16.9432 18.2268
1 0.8918 20.5102 16.4432
1 2.6752 18.7268 16.4432
1 0.0000 17.8350 17.3350
1 1.7835 19.6185 17.3350
1 0.8918 18.7268 18.2268
1 2.6752 20.5102 18.2268
1 4.4588 20.5102 16.4432
1 6.2422 18.7268 16.4432
1 3.5670 17.8350 17.3350
1 5.3505 19.6185 17.3350
1 4.4588 18.7268 18.2268
1 6.2422 20.5102 18.2268
1 8.0258 20.5102 16.4432
1 9.8092 18.7268 16.4432
1 7.1340 17.8350 17.3350
1 8.9175 19.6185 17.3350
1 8.0258 18.7268 18.2268
1 9.8092 20.5102 18.2268
1 11.5928 20.5102 16.4432
1 13.3763 18.7268 16.4432
1 10.7010 17.8350 17.3350
1 12.4845 19.6185 17.3350
1 11.5928 18.7268 18.2268
1 13.3763 20.5102 18.2268
1 15.1598 20.5102 16.4432
1 16.9432 18.7268 16.4432
1 14.2680 17.8350 17.3350
1 16.0515 19.6185 17.3350
1 15.1598 18.7268 18.2268
1 16.9432 20.5102 18.2268
1 18.7268 20.5102 16.4432
1 20.5102 18.7268 16.4432
1 17.8350 17.8350 17.3350
1 19.6185 19.6185 17.3350
1 18.7268 18.7268 18.2268
1 20.5102 20.5102 18.2268
1 0.8918 24.0772 16.4432
1 2.6752 22.2938 16.4432
1 0.0000 21.4020 17.3350
1 1.7835 23.1855 17.3350
1 0.8918 22.2938 18.2268
1 2.6752 24.0772 18.2268
1 4.4588 24.0772 16.4432
1 6.2422 22.2938 16.4432
1 3.5670 21.4020 17.3350
1 5.3505 23.1855 17.3350
1 4.4588 22.2938 18.2268
1 6.2422 24.0772 18.2268
1 8.0258 24.0772 16.4432
1 9.8092 22.2938 16.4432
1 7.1340 21.4020 17.3350
1 8.9175 23.1855 17.3350
1 8.0258 22.2938 18.2268
1 9.8092 24.0772 18.2268
1 11.5928 24.0772 16.4432
1 13.3763 22.2938 16.4432
1 10.7010 21.4020 17.3350
1 12.4845 23.1855 17.3350
1 11.5928 22.2938 18.2268
1 13.3763 24.0772 18.2268
1 15.1598 24.0772 16.4432
1 16.9432 22.2938 16.4432
1 14.2680 21.4020 17.3350
1 16.0515 23.1855 17.3350
1 15.1598 22.2938 18.2268
1 16.9432 24.0772 18.2268
1 18.7268 24.0772 16.4432
1 20.5102 22.2938 16.4432
1 17.8350 21.4020 17.3350
1 19.6185 23.1855 17.3350
1 18.7268 22.2938 18.2268
1 20.5102 24.0772 18.2268
1 0.8918 27.6442 16.4432
1 2.6752 25.8608 16.4432
1 0.0000 24.9690 17.3350
1 1.7835 26.7525 17.3350
1 0.8918 25.8608 18.2268
1 2.6752 27.6442 18.2268
1 4.4588 27.6442 16.4432
1 6.2422 25.8608 16.4432
1 3.5670 24.9690 17.3350
1 5.3505 26.7525 17.3350
1 4.4588 25.8608 18.2268
1 6.2422 27.6442 18.2268
1 8.0258 27.6442 16.4432
1 9.8092 25.8608 16.4432
1 7.1340 24.9690 17.3350
1 8.9175 26.7525 17.3350
1 8.0258 25.8608 18.2268
1 9.8092 27.6442 18.2268
1 11.5928 27.6442 16.4432
1 13.3763 25.8608 16.4432
1 10.7010 24.9690 17.3350
1 12.4845 26.7525 17.3350
1 11.5928 25.8608 18.2268
1 13.3763 27.6442 18.2268
1 15.1598 27.6442 16.4432
1 16.9432 25.8608 16.4432
1 14.2680 24.9690 17.3350
1 16.0515 26.7525 17.3350
1 15.1598 25.8608 18.2268
1 16.9432 27.6442 18.2268
1 18.7268 27.6442 16.4432
1 20.5102 25.8608 16.4432
1 17.8350 24.9690 17.3350
1 19.6185 26.7525 17.3350
1 18.7268 25.8608 18.2268
1 20.5102 27.6442 18.2268
1 0.0000 1.7835 19.1185
1 1.7835 0.0000 19.1185
1 0.8918 2.6752 20.0102
1 2.6752 0.8918 20.0102
1 3.5670 1.7835 19.1185
1 5.3505 0.0000 19.1185
1 4.4588 2.6752 20.0102
1 6.2422 0.8918 20.0102
1 7.1340 1.7835 19.1185
1 8.9175 0.0000 19.1185
1 8.0258 2.6752 20.0102
1 9.8092 0.8918 20.0102