LAMMPS data file from restart file: timestep = 1, procs = 1

0 atoms

2 atom types

0 14.268 xlo xhi
0 14.268 ylo yhi
-0.0 21.402 zlo zhi

Masses

1 12.01
2 3.016

Atoms
