LAMMPS data file from restart file: timestep = 1, procs = 1

2784 atoms

2 atom types

#0 20.5103 xlo xhi
#0 18.916944 ylo yhi
#0 35.31164 zlo zhi

0 20.6 xlo xhi
0 19.0 ylo yhi
0 35.4 zlo zhi


Masses

1 12.01
2 1.0079

Atoms

1 1 0.0 0.0 35.311569
2 1 0.8918 1.261125 35.31164
3 1 2.6752 0.0 34.050515
4 1 3.567 0.0 35.311569
5 1 4.4588 1.261125 35.31164
6 1 6.2422 0.0 34.050515
7 1 7.134 0.0 35.311569
8 1 8.0258 1.261125 35.31164
9 1 9.8092 0.0 34.050515
10 1 10.701 0.0 35.311569
11 1 11.5928 1.261125 35.31164
12 1 13.3763 0.0 34.050515
13 1 14.268 0.0 35.311569
14 1 15.1598 1.261125 35.31164
15 1 16.9433 0.0 34.050515
16 1 17.835 0.0 35.311569
17 1 18.7268 1.261125 35.31164
18 1 20.5103 0.0 34.050515
19 1 0.0 0.0 30.267069
20 1 0.8918 1.261125 30.26714
21 1 2.6752 0.0 29.006015
22 1 2.6752 7e-05 31.528194
23 1 3.567 0.0 30.267069
24 1 4.4588 1.261125 30.26714
25 1 6.2422 0.0 29.006015
26 1 6.2422 7e-05 31.528194
27 1 7.134 0.0 30.267069
28 1 8.0258 1.261125 30.26714
29 1 9.8092 0.0 29.006015
30 1 9.8092 7e-05 31.528194
31 1 10.701 0.0 30.267069
32 1 11.5928 1.261125 30.26714
33 1 13.3763 0.0 29.006015
34 1 13.3763 7e-05 31.528194
35 1 14.268 0.0 30.267069
36 1 15.1598 1.261125 30.26714
37 1 16.9433 0.0 29.006015
38 1 16.9433 7e-05 31.528194
39 1 17.835 0.0 30.267069
40 1 18.7268 1.261125 30.26714
41 1 20.5103 0.0 29.006015
42 1 20.5103 7e-05 31.528194
43 1 0.0 0.0 32.789319
44 1 0.0 2.52225 32.789319
45 1 1.7835 1.261125 31.528194
46 1 1.7835 1.261125 34.050444
47 1 0.8918 1.261195 32.789319
48 1 0.8918 3.783375 32.78939
49 1 2.6752 2.52225 31.528265
50 1 2.6752 2.52232 34.050444
51 1 3.567 0.0 32.789319
52 1 3.567 2.52225 32.789319
53 1 5.3505 1.261125 31.528194
54 1 5.3505 1.261125 34.050444
55 1 4.4588 1.261195 32.789319
56 1 4.4588 3.783375 32.78939
57 1 6.2422 2.52225 31.528265
58 1 6.2422 2.52232 34.050444
59 1 7.134 0.0 32.789319
60 1 7.134 2.52225 32.789319
61 1 8.9175 1.261125 31.528194
62 1 8.9175 1.261125 34.050444
63 1 8.0258 1.261195 32.789319
64 1 8.0258 3.783375 32.78939
65 1 9.8092 2.52225 31.528265
66 1 9.8092 2.52232 34.050444
67 1 10.701 0.0 32.789319
68 1 10.701 2.52225 32.789319
69 1 12.4845 1.261125 31.528194
70 1 12.4845 1.261125 34.050444
71 1 11.5928 1.261195 32.789319
72 1 11.5928 3.783375 32.78939
73 1 13.3763 2.52225 31.528265
74 1 13.3763 2.52232 34.050444
75 1 14.268 0.0 32.789319
76 1 14.268 2.52225 32.789319
77 1 16.0515 1.261125 31.528194
78 1 16.0515 1.261125 34.050444
79 1 15.1598 1.261195 32.789319
80 1 15.1598 3.783375 32.78939
81 1 16.9433 2.52225 31.528265
82 1 16.9433 2.52232 34.050444
83 1 17.835 0.0 32.789319
84 1 17.835 2.52225 32.789319
85 1 19.6185 1.261125 31.528194
86 1 19.6185 1.261125 34.050444
87 1 18.7268 1.261195 32.789319
88 1 18.7268 3.783375 32.78939
89 1 20.5103 2.52225 31.528265
90 1 20.5103 2.52232 34.050444
91 1 0.0 2.52225 35.311569
92 1 0.0 5.0445 35.311569
93 1 1.7835 3.783375 34.050444
94 1 0.8918 3.783445 35.311569
95 1 0.8918 6.305624 35.31164
96 1 2.6752 5.0445 34.050515
97 1 3.567 2.52225 35.311569
98 1 3.567 5.0445 35.311569
99 1 5.3505 3.783375 34.050444
100 1 4.4588 3.783445 35.311569
101 1 4.4588 6.305624 35.31164
102 1 6.2422 5.0445 34.050515
103 1 7.134 2.52225 35.311569
104 1 7.134 5.0445 35.311569
105 1 8.9175 3.783375 34.050444
106 1 8.0258 3.783445 35.311569
107 1 8.0258 6.305624 35.31164
108 1 9.8092 5.0445 34.050515
109 1 10.701 2.52225 35.311569
110 1 10.701 5.0445 35.311569
111 1 12.4845 3.783375 34.050444
112 1 11.5928 3.783445 35.311569
113 1 11.5928 6.305624 35.31164
114 1 13.3763 5.0445 34.050515
115 1 14.268 2.52225 35.311569
116 1 14.268 5.0445 35.311569
117 1 16.0515 3.783375 34.050444
118 1 15.1598 3.783445 35.311569
119 1 15.1598 6.305624 35.31164
120 1 16.9433 5.0445 34.050515
121 1 17.835 2.52225 35.311569
122 1 17.835 5.0445 35.311569
123 1 19.6185 3.783375 34.050444
124 1 18.7268 3.783445 35.311569
125 1 18.7268 6.305624 35.31164
126 1 20.5103 5.0445 34.050515
127 1 0.0 0.0 25.22257
128 1 0.8918 1.261054 25.22257
129 1 2.6752 0.0 23.961515
130 1 2.6752 0.0 26.483624
131 1 3.567 0.0 25.22257
132 1 4.4588 1.261054 25.22257
133 1 6.2422 0.0 23.961515
134 1 6.2422 0.0 26.483624
135 1 7.134 0.0 25.22257
136 1 8.0258 1.261054 25.22257
137 1 9.8092 0.0 23.961515
138 1 9.8092 0.0 26.483624
139 1 10.701 0.0 25.22257
140 1 11.5928 1.261054 25.22257
141 1 13.3763 0.0 23.961515
142 1 13.3763 0.0 26.483624
143 1 14.268 0.0 25.22257
144 1 15.1598 1.261054 25.22257
145 1 16.9433 0.0 23.961515
146 1 16.9433 0.0 26.483624
147 1 17.835 0.0 25.22257
148 1 18.7268 1.261054 25.22257
149 1 20.5103 0.0 23.961515
150 1 20.5103 0.0 26.483624
151 1 0.0 0.0 27.74482
152 1 0.0 2.52225 27.74482
153 1 1.7835 1.261125 26.483695
154 1 1.7835 1.261125 29.005944
155 1 0.8918 1.261195 27.74482
156 1 0.8918 3.783375 27.74489
157 1 2.6752 2.52225 26.483765
158 1 2.6752 2.52232 29.005944
159 1 3.567 0.0 27.74482
160 1 3.567 2.52225 27.74482
161 1 5.3505 1.261125 26.483695
162 1 5.3505 1.261125 29.005944
163 1 4.4588 1.261195 27.74482
164 1 4.4588 3.783375 27.74489
165 1 6.2422 2.52225 26.483765
166 1 6.2422 2.52232 29.005944
167 1 7.134 0.0 27.74482
168 1 7.134 2.52225 27.74482
169 1 8.9175 1.261125 26.483695
170 1 8.9175 1.261125 29.005944
171 1 8.0258 1.261195 27.74482
172 1 8.0258 3.783375 27.74489
173 1 9.8092 2.52225 26.483765
174 1 9.8092 2.52232 29.005944
175 1 10.701 0.0 27.74482
176 1 10.701 2.52225 27.74482
177 1 12.4845 1.261125 26.483695
178 1 12.4845 1.261125 29.005944
179 1 11.5928 1.261195 27.74482
180 1 11.5928 3.783375 27.74489
181 1 13.3763 2.52225 26.483765
182 1 13.3763 2.52232 29.005944
183 1 14.268 0.0 27.74482
184 1 14.268 2.52225 27.74482
185 1 16.0515 1.261125 26.483695
186 1 16.0515 1.261125 29.005944
187 1 15.1598 1.261195 27.74482
188 1 15.1598 3.783375 27.74489
189 1 16.9433 2.52225 26.483765
190 1 16.9433 2.52232 29.005944
191 1 17.835 0.0 27.74482
192 1 17.835 2.52225 27.74482
193 1 19.6185 1.261125 26.483695
194 1 19.6185 1.261125 29.005944
195 1 18.7268 1.261195 27.74482
196 1 18.7268 3.783375 27.74489
197 1 20.5103 2.52225 26.483765
198 1 20.5103 2.52232 29.005944
199 1 0.0 2.52225 30.267069
200 1 0.0 5.0445 30.267069
201 1 1.7835 3.783375 29.005944
202 1 1.7835 3.783375 31.528194
203 1 0.8918 3.783445 30.267069
204 1 0.8918 6.305624 30.26714
205 1 2.6752 5.0445 29.006015
206 1 2.6752 5.04457 31.528194
207 1 3.567 2.52225 30.267069
208 1 3.567 5.0445 30.267069
209 1 5.3505 3.783375 29.005944
210 1 5.3505 3.783375 31.528194
211 1 4.4588 3.783445 30.267069
212 1 4.4588 6.305624 30.26714
213 1 6.2422 5.0445 29.006015
214 1 6.2422 5.04457 31.528194
215 1 7.134 2.52225 30.267069
216 1 7.134 5.0445 30.267069
217 1 8.9175 3.783375 29.005944
218 1 8.9175 3.783375 31.528194
219 1 8.0258 3.783445 30.267069
220 1 8.0258 6.305624 30.26714
221 1 9.8092 5.0445 29.006015
222 1 9.8092 5.04457 31.528194
223 1 10.701 2.52225 30.267069
224 1 10.701 5.0445 30.267069
225 1 12.4845 3.783375 29.005944
226 1 12.4845 3.783375 31.528194
227 1 11.5928 3.783445 30.267069
228 1 11.5928 6.305624 30.26714
229 1 13.3763 5.0445 29.006015
230 1 13.3763 5.04457 31.528194
231 1 14.268 2.52225 30.267069
232 1 14.268 5.0445 30.267069
233 1 16.0515 3.783375 29.005944
234 1 16.0515 3.783375 31.528194
235 1 15.1598 3.783445 30.267069
236 1 15.1598 6.305624 30.26714
237 1 16.9433 5.0445 29.006015
238 1 16.9433 5.04457 31.528194
239 1 17.835 2.52225 30.267069
240 1 17.835 5.0445 30.267069
241 1 19.6185 3.783375 29.005944
242 1 19.6185 3.783375 31.528194
243 1 18.7268 3.783445 30.267069
244 1 18.7268 6.305624 30.26714
245 1 20.5103 5.0445 29.006015
246 1 20.5103 5.04457 31.528194
247 1 0.0 5.0445 32.789319
248 1 0.0 7.566749 32.789319
249 1 1.7835 6.305624 31.528194
250 1 1.7835 6.305624 34.050444
251 1 0.8918 6.305695 32.789319
252 1 0.8918 8.827874 32.78939
253 1 2.6752 7.566749 31.528265
254 1 2.6752 7.56682 34.050444
255 1 3.567 5.0445 32.789319
256 1 3.567 7.566749 32.789319
257 1 5.3505 6.305624 31.528194
258 1 5.3505 6.305624 34.050444
259 1 4.4588 6.305695 32.789319
260 1 4.4588 8.827874 32.78939
261 1 6.2422 7.566749 31.528265
262 1 6.2422 7.56682 34.050444
263 1 7.134 5.0445 32.789319
264 1 7.134 7.566749 32.789319
265 1 8.9175 6.305624 31.528194
266 1 8.9175 6.305624 34.050444
267 1 8.0258 6.305695 32.789319
268 1 8.0258 8.827874 32.78939
269 1 9.8092 7.566749 31.528265
270 1 9.8092 7.56682 34.050444
271 1 10.701 5.0445 32.789319
272 1 10.701 7.566749 32.789319
273 1 12.4845 6.305624 31.528194
274 1 12.4845 6.305624 34.050444
275 1 11.5928 6.305695 32.789319
276 1 11.5928 8.827874 32.78939
277 1 13.3763 7.566749 31.528265
278 1 13.3763 7.56682 34.050444
279 1 14.268 5.0445 32.789319
280 1 14.268 7.566749 32.789319
281 1 16.0515 6.305624 31.528194
282 1 16.0515 6.305624 34.050444
283 1 15.1598 6.305695 32.789319
284 1 15.1598 8.827874 32.78939
285 1 16.9433 7.566749 31.528265
286 1 16.9433 7.56682 34.050444
287 1 17.835 5.0445 32.789319
288 1 17.835 7.566749 32.789319
289 1 19.6185 6.305624 31.528194
290 1 19.6185 6.305624 34.050444
291 1 18.7268 6.305695 32.789319
292 1 18.7268 8.827874 32.78939
293 1 20.5103 7.566749 31.528265
294 1 20.5103 7.56682 34.050444
295 1 0.0 7.566749 35.311569
296 1 0.0 10.088999 35.311569
297 1 1.7835 8.827874 34.050444
298 1 0.8918 8.827945 35.311569
299 1 0.8918 11.350124 35.31164
300 1 2.6752 10.088999 34.050515
301 1 3.567 7.566749 35.311569
302 1 3.567 10.088999 35.311569
303 1 5.3505 8.827874 34.050444
304 1 4.4588 8.827945 35.311569
305 1 4.4588 11.350124 35.31164
306 1 6.2422 10.088999 34.050515
307 1 7.134 7.566749 35.311569
308 1 7.134 10.088999 35.311569
309 1 8.9175 8.827874 34.050444
310 1 8.0258 8.827945 35.311569
311 1 8.0258 11.350124 35.31164
312 1 9.8092 10.088999 34.050515
313 1 10.701 7.566749 35.311569
314 1 10.701 10.088999 35.311569
315 1 12.4845 8.827874 34.050444
316 1 11.5928 8.827945 35.311569
317 1 11.5928 11.350124 35.31164
318 1 13.3763 10.088999 34.050515
319 1 14.268 7.566749 35.311569
320 1 14.268 10.088999 35.311569
321 1 16.0515 8.827874 34.050444
322 1 15.1598 8.827945 35.311569
323 1 15.1598 11.350124 35.31164
324 1 16.9433 10.088999 34.050515
325 1 17.835 7.566749 35.311569
326 1 17.835 10.088999 35.311569
327 1 19.6185 8.827874 34.050444
328 1 18.7268 8.827945 35.311569
329 1 18.7268 11.350124 35.31164
330 1 20.5103 10.088999 34.050515
331 1 0.0 0.0 20.17807
332 1 0.8918 1.261054 20.17807
333 1 2.6752 0.0 18.917016
334 1 2.6752 0.0 21.439124
335 1 3.567 0.0 20.17807
336 1 4.4588 1.261054 20.17807
337 1 6.2422 0.0 18.917016
338 1 6.2422 0.0 21.439124
339 1 7.134 0.0 20.17807
340 1 8.0258 1.261054 20.17807
341 1 9.8092 0.0 18.917016
342 1 9.8092 0.0 21.439124
343 1 10.701 0.0 20.17807
344 1 11.5928 1.261054 20.17807
345 1 13.3763 0.0 18.917016
346 1 13.3763 0.0 21.439124
347 1 14.268 0.0 20.17807
348 1 15.1598 1.261054 20.17807
349 1 16.9433 0.0 18.917016
350 1 16.9433 0.0 21.439124
351 1 17.835 0.0 20.17807
352 1 18.7268 1.261054 20.17807
353 1 20.5103 0.0 18.917016
354 1 20.5103 0.0 21.439124
355 1 0.0 0.0 22.70032
356 1 0.0 2.52225 22.70032
357 1 1.7835 1.261125 21.439195
358 1 1.7835 1.261125 23.961445
359 1 0.8918 1.261195 22.70032
360 1 0.8918 3.783304 22.70032
361 1 2.6752 2.52225 21.439266
362 1 2.6752 2.52225 23.961374
363 1 3.567 0.0 22.70032
364 1 3.567 2.52225 22.70032
365 1 5.3505 1.261125 21.439195
366 1 5.3505 1.261125 23.961445
367 1 4.4588 1.261195 22.70032
368 1 4.4588 3.783304 22.70032
369 1 6.2422 2.52225 21.439266
370 1 6.2422 2.52225 23.961374
371 1 7.134 0.0 22.70032
372 1 7.134 2.52225 22.70032
373 1 8.9175 1.261125 21.439195
374 1 8.9175 1.261125 23.961445
375 1 8.0258 1.261195 22.70032
376 1 8.0258 3.783304 22.70032
377 1 9.8092 2.52225 21.439266
378 1 9.8092 2.52225 23.961374
379 1 10.701 0.0 22.70032
380 1 10.701 2.52225 22.70032
381 1 12.4845 1.261125 21.439195
382 1 12.4845 1.261125 23.961445
383 1 11.5928 1.261195 22.70032
384 1 11.5928 3.783304 22.70032
385 1 13.3763 2.52225 21.439266
386 1 13.3763 2.52225 23.961374
387 1 14.268 0.0 22.70032
388 1 14.268 2.52225 22.70032
389 1 16.0515 1.261125 21.439195
390 1 16.0515 1.261125 23.961445
391 1 15.1598 1.261195 22.70032
392 1 15.1598 3.783304 22.70032
393 1 16.9433 2.52225 21.439266
394 1 16.9433 2.52225 23.961374
395 1 17.835 0.0 22.70032
396 1 17.835 2.52225 22.70032
397 1 19.6185 1.261125 21.439195
398 1 19.6185 1.261125 23.961445
399 1 18.7268 1.261195 22.70032
400 1 18.7268 3.783304 22.70032
401 1 20.5103 2.52225 21.439266
402 1 20.5103 2.52225 23.961374
403 1 0.0 2.52225 25.22257
404 1 0.0 5.0445 25.22257
405 1 1.7835 3.783375 23.961445
406 1 1.7835 3.783375 26.483695
407 1 0.8918 3.783445 25.22257
408 1 0.8918 6.305624 25.22264
409 1 2.6752 5.0445 23.961515
410 1 2.6752 5.04457 26.483695
411 1 3.567 2.52225 25.22257
412 1 3.567 5.0445 25.22257
413 1 5.3505 3.783375 23.961445
414 1 5.3505 3.783375 26.483695
415 1 4.4588 3.783445 25.22257
416 1 4.4588 6.305624 25.22264
417 1 6.2422 5.0445 23.961515
418 1 6.2422 5.04457 26.483695
419 1 7.134 2.52225 25.22257
420 1 7.134 5.0445 25.22257
421 1 8.9175 3.783375 23.961445
422 1 8.9175 3.783375 26.483695
423 1 8.0258 3.783445 25.22257
424 1 8.0258 6.305624 25.22264
425 1 9.8092 5.0445 23.961515
426 1 9.8092 5.04457 26.483695
427 1 10.701 2.52225 25.22257
428 1 10.701 5.0445 25.22257
429 1 12.4845 3.783375 23.961445
430 1 12.4845 3.783375 26.483695
431 1 11.5928 3.783445 25.22257
432 1 11.5928 6.305624 25.22264
433 1 13.3763 5.0445 23.961515
434 1 13.3763 5.04457 26.483695
435 1 14.268 2.52225 25.22257
436 1 14.268 5.0445 25.22257
437 1 16.0515 3.783375 23.961445
438 1 16.0515 3.783375 26.483695
439 1 15.1598 3.783445 25.22257
440 1 15.1598 6.305624 25.22264
441 1 16.9433 5.0445 23.961515
442 1 16.9433 5.04457 26.483695
443 1 17.835 2.52225 25.22257
444 1 17.835 5.0445 25.22257
445 1 19.6185 3.783375 23.961445
446 1 19.6185 3.783375 26.483695
447 1 18.7268 3.783445 25.22257
448 1 18.7268 6.305624 25.22264
449 1 20.5103 5.0445 23.961515
450 1 20.5103 5.04457 26.483695
451 1 0.0 5.0445 27.74482
452 1 0.0 7.566749 27.74482
453 1 1.7835 6.305624 26.483695
454 1 1.7835 6.305624 29.005944
455 1 0.8918 6.305695 27.74482
456 1 0.8918 8.827874 27.74489
457 1 2.6752 7.566749 26.483765
458 1 2.6752 7.56682 29.005944
459 1 3.567 5.0445 27.74482
460 1 3.567 7.566749 27.74482
461 1 5.3505 6.305624 26.483695
462 1 5.3505 6.305624 29.005944
463 1 4.4588 6.305695 27.74482
464 1 4.4588 8.827874 27.74489
465 1 6.2422 7.566749 26.483765
466 1 6.2422 7.56682 29.005944
467 1 7.134 5.0445 27.74482
468 1 7.134 7.566749 27.74482
469 1 8.9175 6.305624 26.483695
470 1 8.9175 6.305624 29.005944
471 1 8.0258 6.305695 27.74482
472 1 8.0258 8.827874 27.74489
473 1 9.8092 7.566749 26.483765
474 1 9.8092 7.56682 29.005944
475 1 10.701 5.0445 27.74482
476 1 10.701 7.566749 27.74482
477 1 12.4845 6.305624 26.483695
478 1 12.4845 6.305624 29.005944
479 1 11.5928 6.305695 27.74482
480 1 11.5928 8.827874 27.74489
481 1 13.3763 7.566749 26.483765
482 1 13.3763 7.56682 29.005944
483 1 14.268 5.0445 27.74482
484 1 14.268 7.566749 27.74482
485 1 16.0515 6.305624 26.483695
486 1 16.0515 6.305624 29.005944
487 1 15.1598 6.305695 27.74482
488 1 15.1598 8.827874 27.74489
489 1 16.9433 7.566749 26.483765
490 1 16.9433 7.56682 29.005944
491 1 17.835 5.0445 27.74482
492 1 17.835 7.566749 27.74482
493 1 19.6185 6.305624 26.483695
494 1 19.6185 6.305624 29.005944
495 1 18.7268 6.305695 27.74482
496 1 18.7268 8.827874 27.74489
497 1 20.5103 7.566749 26.483765
498 1 20.5103 7.56682 29.005944
499 1 0.0 7.566749 30.267069
500 1 0.0 10.088999 30.267069
501 1 1.7835 8.827874 29.005944
502 1 1.7835 8.827874 31.528194
503 1 0.8918 8.827945 30.267069
504 1 0.8918 11.350124 30.26714
505 1 2.6752 10.088999 29.006015
506 1 2.6752 10.08907 31.528194
507 1 3.567 7.566749 30.267069
508 1 3.567 10.088999 30.267069
509 1 5.3505 8.827874 29.005944
510 1 5.3505 8.827874 31.528194
511 1 4.4588 8.827945 30.267069
512 1 4.4588 11.350124 30.26714
513 1 6.2422 10.088999 29.006015
514 1 6.2422 10.08907 31.528194
515 1 7.134 7.566749 30.267069
516 1 7.134 10.088999 30.267069
517 1 8.9175 8.827874 29.005944
518 1 8.9175 8.827874 31.528194
519 1 8.0258 8.827945 30.267069
520 1 8.0258 11.350124 30.26714
521 1 9.8092 10.088999 29.006015
522 1 9.8092 10.08907 31.528194
523 1 10.701 7.566749 30.267069
524 1 10.701 10.088999 30.267069
525 1 12.4845 8.827874 29.005944
526 1 12.4845 8.827874 31.528194
527 1 11.5928 8.827945 30.267069
528 1 11.5928 11.350124 30.26714
529 1 13.3763 10.088999 29.006015
530 1 13.3763 10.08907 31.528194
531 1 14.268 7.566749 30.267069
532 1 14.268 10.088999 30.267069
533 1 16.0515 8.827874 29.005944
534 1 16.0515 8.827874 31.528194
535 1 15.1598 8.827945 30.267069
536 1 15.1598 11.350124 30.26714
537 1 16.9433 10.088999 29.006015
538 1 16.9433 10.08907 31.528194
539 1 17.835 7.566749 30.267069
540 1 17.835 10.088999 30.267069
541 1 19.6185 8.827874 29.005944
542 1 19.6185 8.827874 31.528194
543 1 18.7268 8.827945 30.267069
544 1 18.7268 11.350124 30.26714
545 1 20.5103 10.088999 29.006015
546 1 20.5103 10.08907 31.528194
547 1 0.0 10.088999 32.789319
548 1 0.0 12.611249 32.789319
549 1 1.7835 11.350124 31.528194
550 1 1.7835 11.350124 34.050444
551 1 0.8918 11.350195 32.789319
552 1 0.8918 13.872374 32.78939
553 1 2.6752 12.611249 31.528265
554 1 2.6752 12.61132 34.050444
555 1 3.567 10.088999 32.789319
556 1 3.567 12.611249 32.789319
557 1 5.3505 11.350124 31.528194
558 1 5.3505 11.350124 34.050444
559 1 4.4588 11.350195 32.789319
560 1 4.4588 13.872374 32.78939
561 1 6.2422 12.611249 31.528265
562 1 6.2422 12.61132 34.050444
563 1 7.134 10.088999 32.789319
564 1 7.134 12.611249 32.789319
565 1 8.9175 11.350124 31.528194
566 1 8.9175 11.350124 34.050444
567 1 8.0258 11.350195 32.789319
568 1 8.0258 13.872374 32.78939
569 1 9.8092 12.611249 31.528265
570 1 9.8092 12.61132 34.050444
571 1 10.701 10.088999 32.789319
572 1 10.701 12.611249 32.789319
573 1 12.4845 11.350124 31.528194
574 1 12.4845 11.350124 34.050444
575 1 11.5928 11.350195 32.789319
576 1 11.5928 13.872374 32.78939
577 1 13.3763 12.611249 31.528265
578 1 13.3763 12.61132 34.050444
579 1 14.268 10.088999 32.789319
580 1 14.268 12.611249 32.789319
581 1 16.0515 11.350124 31.528194
582 1 16.0515 11.350124 34.050444
583 1 15.1598 11.350195 32.789319
584 1 15.1598 13.872374 32.78939
585 1 16.9433 12.611249 31.528265
586 1 16.9433 12.61132 34.050444
587 1 17.835 10.088999 32.789319
588 1 17.835 12.611249 32.789319
589 1 19.6185 11.350124 31.528194
590 1 19.6185 11.350124 34.050444
591 1 18.7268 11.350195 32.789319
592 1 18.7268 13.872374 32.78939
593 1 20.5103 12.611249 31.528265
594 1 20.5103 12.61132 34.050444
595 1 0.0 12.611249 35.311569
596 1 0.0 15.133499 35.311569
597 1 1.7835 13.872374 34.050444
598 1 0.8918 13.872444 35.311569
599 1 0.8918 16.394624 35.31164
600 1 2.6752 15.133499 34.050515
601 1 3.567 12.611249 35.311569
602 1 3.567 15.133499 35.311569
603 1 5.3505 13.872374 34.050444
604 1 4.4588 13.872444 35.311569
605 1 4.4588 16.394624 35.31164
606 1 6.2422 15.133499 34.050515
607 1 7.134 12.611249 35.311569
608 1 7.134 15.133499 35.311569
609 1 8.9175 13.872374 34.050444
610 1 8.0258 13.872444 35.311569
611 1 8.0258 16.394624 35.31164
612 1 9.8092 15.133499 34.050515
613 1 10.701 12.611249 35.311569
614 1 10.701 15.133499 35.311569
615 1 12.4845 13.872374 34.050444
616 1 11.5928 13.872444 35.311569
617 1 11.5928 16.394624 35.31164
618 1 13.3763 15.133499 34.050515
619 1 14.268 12.611249 35.311569
620 1 14.268 15.133499 35.311569
621 1 16.0515 13.872374 34.050444
622 1 15.1598 13.872444 35.311569
623 1 15.1598 16.394624 35.31164
624 1 16.9433 15.133499 34.050515
625 1 17.835 12.611249 35.311569
626 1 17.835 15.133499 35.311569
627 1 19.6185 13.872374 34.050444
628 1 18.7268 13.872444 35.311569
629 1 18.7268 16.394624 35.31164
630 1 20.5103 15.133499 34.050515
631 1 0.0 0.0 15.13357
632 1 0.8918 1.261054 15.13357
633 1 2.6752 0.0 13.872516
634 1 2.6752 0.0 16.394624
635 1 3.567 0.0 15.13357
636 1 4.4588 1.261054 15.13357
637 1 6.2422 0.0 13.872516
638 1 6.2422 0.0 16.394624
639 1 7.134 0.0 15.13357
640 1 8.0258 1.261054 15.13357
641 1 9.8092 0.0 13.872516
642 1 9.8092 0.0 16.394624
643 1 10.701 0.0 15.13357
644 1 11.5928 1.261054 15.13357
645 1 13.3763 0.0 13.872516
646 1 13.3763 0.0 16.394624
647 1 14.268 0.0 15.13357
648 1 15.1598 1.261054 15.13357
649 1 16.9433 0.0 13.872516
650 1 16.9433 0.0 16.394624
651 1 17.835 0.0 15.13357
652 1 18.7268 1.261054 15.13357
653 1 20.5103 0.0 13.872516
654 1 20.5103 0.0 16.394624
655 1 0.0 0.0 17.65582
656 1 0.0 2.52225 17.65582
657 1 1.7835 1.261125 16.394695
658 1 1.7835 1.261125 18.916945
659 1 0.8918 1.261195 17.65582
660 1 0.8918 3.783304 17.65582
661 1 2.6752 2.52225 16.394766
662 1 2.6752 2.52225 18.916874
663 1 3.567 0.0 17.65582
664 1 3.567 2.52225 17.65582
665 1 5.3505 1.261125 16.394695
666 1 5.3505 1.261125 18.916945
667 1 4.4588 1.261195 17.65582
668 1 4.4588 3.783304 17.65582
669 1 6.2422 2.52225 16.394766
670 1 6.2422 2.52225 18.916874
671 1 7.134 0.0 17.65582
672 1 7.134 2.52225 17.65582
673 1 8.9175 1.261125 16.394695
674 1 8.9175 1.261125 18.916945
675 1 8.0258 1.261195 17.65582
676 1 8.0258 3.783304 17.65582
677 1 9.8092 2.52225 16.394766
678 1 9.8092 2.52225 18.916874
679 1 10.701 0.0 17.65582
680 1 10.701 2.52225 17.65582
681 1 12.4845 1.261125 16.394695
682 1 12.4845 1.261125 18.916945
683 1 11.5928 1.261195 17.65582
684 1 11.5928 3.783304 17.65582
685 1 13.3763 2.52225 16.394766
686 1 13.3763 2.52225 18.916874
687 1 14.268 0.0 17.65582
688 1 14.268 2.52225 17.65582
689 1 16.0515 1.261125 16.394695
690 1 16.0515 1.261125 18.916945
691 1 15.1598 1.261195 17.65582
692 1 15.1598 3.783304 17.65582
693 1 16.9433 2.52225 16.394766
694 1 16.9433 2.52225 18.916874
695 1 17.835 0.0 17.65582
696 1 17.835 2.52225 17.65582
697 1 19.6185 1.261125 16.394695
698 1 19.6185 1.261125 18.916945
699 1 18.7268 1.261195 17.65582
700 1 18.7268 3.783304 17.65582
701 1 20.5103 2.52225 16.394766
702 1 20.5103 2.52225 18.916874
703 1 0.0 2.52225 20.17807
704 1 0.0 5.0445 20.17807
705 1 1.7835 3.783375 18.916945
706 1 1.7835 3.783375 21.439195
707 1 0.8918 3.783445 20.17807
708 1 0.8918 6.305554 20.17807
709 1 2.6752 5.0445 18.917016
710 1 2.6752 5.0445 21.439124
711 1 3.567 2.52225 20.17807
712 1 3.567 5.0445 20.17807
713 1 5.3505 3.783375 18.916945
714 1 5.3505 3.783375 21.439195
715 1 4.4588 3.783445 20.17807
716 1 4.4588 6.305554 20.17807
717 1 6.2422 5.0445 18.917016
718 1 6.2422 5.0445 21.439124
719 1 7.134 2.52225 20.17807
720 1 7.134 5.0445 20.17807
721 1 8.9175 3.783375 18.916945
722 1 8.9175 3.783375 21.439195
723 1 8.0258 3.783445 20.17807
724 1 8.0258 6.305554 20.17807
725 1 9.8092 5.0445 18.917016
726 1 9.8092 5.0445 21.439124
727 1 10.701 2.52225 20.17807
728 1 10.701 5.0445 20.17807
729 1 12.4845 3.783375 18.916945
730 1 12.4845 3.783375 21.439195
731 1 11.5928 3.783445 20.17807
732 1 11.5928 6.305554 20.17807
733 1 13.3763 5.0445 18.917016
734 1 13.3763 5.0445 21.439124
735 1 14.268 2.52225 20.17807
736 1 14.268 5.0445 20.17807
737 1 16.0515 3.783375 18.916945
738 1 16.0515 3.783375 21.439195
739 1 15.1598 3.783445 20.17807
740 1 15.1598 6.305554 20.17807
741 1 16.9433 5.0445 18.917016
742 1 16.9433 5.0445 21.439124
743 1 17.835 2.52225 20.17807
744 1 17.835 5.0445 20.17807
745 1 19.6185 3.783375 18.916945
746 1 19.6185 3.783375 21.439195
747 1 18.7268 3.783445 20.17807
748 1 18.7268 6.305554 20.17807
749 1 20.5103 5.0445 18.917016
750 1 20.5103 5.0445 21.439124
751 1 0.0 5.0445 22.70032
752 1 0.0 7.566749 22.70032
753 1 1.7835 6.305624 21.439195
754 1 1.7835 6.305624 23.961445
755 1 0.8918 6.305695 22.70032
756 1 0.8918 8.827874 22.70039
757 1 2.6752 7.566749 21.439266
758 1 2.6752 7.56682 23.961445
759 1 3.567 5.0445 22.70032
760 1 3.567 7.566749 22.70032
761 1 5.3505 6.305624 21.439195
762 1 5.3505 6.305624 23.961445
763 1 4.4588 6.305695 22.70032
764 1 4.4588 8.827874 22.70039
765 1 6.2422 7.566749 21.439266
766 1 6.2422 7.56682 23.961445
767 1 7.134 5.0445 22.70032
768 1 7.134 7.566749 22.70032
769 1 8.9175 6.305624 21.439195
770 1 8.9175 6.305624 23.961445
771 1 8.0258 6.305695 22.70032
772 1 8.0258 8.827874 22.70039
773 1 9.8092 7.566749 21.439266
774 1 9.8092 7.56682 23.961445
775 1 10.701 5.0445 22.70032
776 1 10.701 7.566749 22.70032
777 1 12.4845 6.305624 21.439195
778 1 12.4845 6.305624 23.961445
779 1 11.5928 6.305695 22.70032
780 1 11.5928 8.827874 22.70039
781 1 13.3763 7.566749 21.439266
782 1 13.3763 7.56682 23.961445
783 1 14.268 5.0445 22.70032
784 1 14.268 7.566749 22.70032
785 1 16.0515 6.305624 21.439195
786 1 16.0515 6.305624 23.961445
787 1 15.1598 6.305695 22.70032
788 1 15.1598 8.827874 22.70039
789 1 16.9433 7.566749 21.439266
790 1 16.9433 7.56682 23.961445
791 1 17.835 5.0445 22.70032
792 1 17.835 7.566749 22.70032
793 1 19.6185 6.305624 21.439195
794 1 19.6185 6.305624 23.961445
795 1 18.7268 6.305695 22.70032
796 1 18.7268 8.827874 22.70039
797 1 20.5103 7.566749 21.439266
798 1 20.5103 7.56682 23.961445
799 1 0.0 7.566749 25.22257
800 1 0.0 10.088999 25.22257
801 1 1.7835 8.827874 23.961445
802 1 1.7835 8.827874 26.483695
803 1 0.8918 8.827945 25.22257
804 1 0.8918 11.350124 25.22264
805 1 2.6752 10.088999 23.961515
806 1 2.6752 10.08907 26.483695
807 1 3.567 7.566749 25.22257
808 1 3.567 10.088999 25.22257
809 1 5.3505 8.827874 23.961445
810 1 5.3505 8.827874 26.483695
811 1 4.4588 8.827945 25.22257
812 1 4.4588 11.350124 25.22264
813 1 6.2422 10.088999 23.961515
814 1 6.2422 10.08907 26.483695
815 1 7.134 7.566749 25.22257
816 1 7.134 10.088999 25.22257
817 1 8.9175 8.827874 23.961445
818 1 8.9175 8.827874 26.483695
819 1 8.0258 8.827945 25.22257
820 1 8.0258 11.350124 25.22264
821 1 9.8092 10.088999 23.961515
822 1 9.8092 10.08907 26.483695
823 1 10.701 7.566749 25.22257
824 1 10.701 10.088999 25.22257
825 1 12.4845 8.827874 23.961445
826 1 12.4845 8.827874 26.483695
827 1 11.5928 8.827945 25.22257
828 1 11.5928 11.350124 25.22264
829 1 13.3763 10.088999 23.961515
830 1 13.3763 10.08907 26.483695
831 1 14.268 7.566749 25.22257
832 1 14.268 10.088999 25.22257
833 1 16.0515 8.827874 23.961445
834 1 16.0515 8.827874 26.483695
835 1 15.1598 8.827945 25.22257
836 1 15.1598 11.350124 25.22264
837 1 16.9433 10.088999 23.961515
838 1 16.9433 10.08907 26.483695
839 1 17.835 7.566749 25.22257
840 1 17.835 10.088999 25.22257
841 1 19.6185 8.827874 23.961445
842 1 19.6185 8.827874 26.483695
843 1 18.7268 8.827945 25.22257
844 1 18.7268 11.350124 25.22264
845 1 20.5103 10.088999 23.961515
846 1 20.5103 10.08907 26.483695
847 1 0.0 10.088999 27.74482
848 1 0.0 12.611249 27.74482
849 1 1.7835 11.350124 26.483695
850 1 1.7835 11.350124 29.005944
851 1 0.8918 11.350195 27.74482
852 1 0.8918 13.872374 27.74489
853 1 2.6752 12.611249 26.483765
854 1 2.6752 12.61132 29.005944
855 1 3.567 10.088999 27.74482
856 1 3.567 12.611249 27.74482
857 1 5.3505 11.350124 26.483695
858 1 5.3505 11.350124 29.005944
859 1 4.4588 11.350195 27.74482
860 1 4.4588 13.872374 27.74489
861 1 6.2422 12.611249 26.483765
862 1 6.2422 12.61132 29.005944
863 1 7.134 10.088999 27.74482
864 1 7.134 12.611249 27.74482
865 1 8.9175 11.350124 26.483695
866 1 8.9175 11.350124 29.005944
867 1 8.0258 11.350195 27.74482
868 1 8.0258 13.872374 27.74489
869 1 9.8092 12.611249 26.483765
870 1 9.8092 12.61132 29.005944
871 1 10.701 10.088999 27.74482
872 1 10.701 12.611249 27.74482
873 1 12.4845 11.350124 26.483695
874 1 12.4845 11.350124 29.005944
875 1 11.5928 11.350195 27.74482
876 1 11.5928 13.872374 27.74489
877 1 13.3763 12.611249 26.483765
878 1 13.3763 12.61132 29.005944
879 1 14.268 10.088999 27.74482
880 1 14.268 12.611249 27.74482
881 1 16.0515 11.350124 26.483695
882 1 16.0515 11.350124 29.005944
883 1 15.1598 11.350195 27.74482
884 1 15.1598 13.872374 27.74489
885 1 16.9433 12.611249 26.483765
886 1 16.9433 12.61132 29.005944
887 1 17.835 10.088999 27.74482
888 1 17.835 12.611249 27.74482
889 1 19.6185 11.350124 26.483695
890 1 19.6185 11.350124 29.005944
891 1 18.7268 11.350195 27.74482
892 1 18.7268 13.872374 27.74489
893 1 20.5103 12.611249 26.483765
894 1 20.5103 12.61132 29.005944
895 1 0.0 12.611249 30.267069
896 1 0.0 15.133499 30.267069
897 1 1.7835 13.872374 29.005944
898 1 1.7835 13.872374 31.528194
899 1 0.8918 13.872444 30.267069
900 1 0.8918 16.394624 30.26714
901 1 2.6752 15.133499 29.006015
902 1 2.6752 15.133569 31.528194
903 1 3.567 12.611249 30.267069
904 1 3.567 15.133499 30.267069
905 1 5.3505 13.872374 29.005944
906 1 5.3505 13.872374 31.528194
907 1 4.4588 13.872444 30.267069
908 1 4.4588 16.394624 30.26714
909 1 6.2422 15.133499 29.006015
910 1 6.2422 15.133569 31.528194
911 1 7.134 12.611249 30.267069
912 1 7.134 15.133499 30.267069
913 1 8.9175 13.872374 29.005944
914 1 8.9175 13.872374 31.528194
915 1 8.0258 13.872444 30.267069
916 1 8.0258 16.394624 30.26714
917 1 9.8092 15.133499 29.006015
918 1 9.8092 15.133569 31.528194
919 1 10.701 12.611249 30.267069
920 1 10.701 15.133499 30.267069
921 1 12.4845 13.872374 29.005944
922 1 12.4845 13.872374 31.528194
923 1 11.5928 13.872444 30.267069
924 1 11.5928 16.394624 30.26714
925 1 13.3763 15.133499 29.006015
926 1 13.3763 15.133569 31.528194
927 1 14.268 12.611249 30.267069
928 1 14.268 15.133499 30.267069
929 1 16.0515 13.872374 29.005944
930 1 16.0515 13.872374 31.528194
931 1 15.1598 13.872444 30.267069
932 1 15.1598 16.394624 30.26714
933 1 16.9433 15.133499 29.006015
934 1 16.9433 15.133569 31.528194
935 1 17.835 12.611249 30.267069
936 1 17.835 15.133499 30.267069
937 1 19.6185 13.872374 29.005944
938 1 19.6185 13.872374 31.528194
939 1 18.7268 13.872444 30.267069
940 1 18.7268 16.394624 30.26714
941 1 20.5103 15.133499 29.006015
942 1 20.5103 15.133569 31.528194
943 1 0.0 15.133499 32.789319
944 1 0.0 17.655749 32.789319
945 1 1.7835 16.394624 31.528194
946 1 1.7835 16.394624 34.050444
947 1 0.8918 16.394694 32.789319
948 1 0.8918 18.916874 32.78939
949 1 2.6752 17.655749 31.528265
950 1 2.6752 17.655819 34.050444
951 1 3.567 15.133499 32.789319
952 1 3.567 17.655749 32.789319
953 1 5.3505 16.394624 31.528194
954 1 5.3505 16.394624 34.050444
955 1 4.4588 16.394694 32.789319
956 1 4.4588 18.916874 32.78939
957 1 6.2422 17.655749 31.528265