LAMMPS data file from restart file: timestep = 1, procs = 1

5826 atoms

3 atom types

0.0000000000000000e+00 2.8536000000000001e+01 xlo xhi
0.0000000000000000e+00 2.8536000000000001e+01 ylo yhi
-8.0000000000000000e+01 1.0738700000000000e+02 zlo zhi

Masses

1 12.01
2 2.0014
3 3.0160

 Atoms

1 1 3.43759 5.68322 -28.8989
2 1 5.66232 6.13901 -32.9475
3 2 1.09181 0.8653 -30.9282
4 2 4.34181 0.71371 -36.3967
5 1 4.26409 2.86367 -36.2133
6 1 4.52493 1.56851 -35.7114
7 1 5.30911 1.30466 -34.5883
8 2 3.6701 0.786516 -27.9479
9 2 1.85991 0.524689 -29.3548
10 2 3.98443 5.0335 -36.4118
11 1 4.47025 4.2202 -35.8963
12 1 4.96966 5.84072 -34.1141
13 1 2.74154 7.0565 -35.0979
14 1 0.732272 7.04784 -36.3904
15 2 2.12005 5.41102 -36.395
16 1 1.88703 6.37783 -35.9454
17 1 3.9376 6.63311 -34.4945
18 1 5.26639 4.63438 -34.7735
19 2 2.89181 3.02989 -33.6605
20 2 2.2587 2.96046 -33.2501
21 2 5.08318 2.92395 -28.9095
22 2 4.33298 5.31539 -30.8167
23 1 4.23903 4.98234 -29.7653
24 1 4.77422 3.8187 -29.3849
25 2 2.75832 5.73309 -28.1288
26 2 0.850204 1.97192 -29.474
27 1 4.92081 3.55313 -26.7124
28 1 4.03653 2.70765 -27.0605
29 1 3.27322 1.76556 -27.5177
30 2 2.17998 1.65953 -27.5794
31 2 1.50305 5.42296 -26.7733
32 1 0.927194 0.847162 -29.869
33 2 0.205506 6.72708 -26.7404
34 2 4.63689 0.193746 -22.5792
35 2 2.18016 4.24109 -21.6802
36 1 4.60558 6.01959 -25.4347
37 1 5.35736 4.66791 -25.5308
38 1 3.30181 6.28698 -25.8815
39 2 5.27767 6.86708 -25.1885
40 1 0.794864 4.37956 -14.0425
41 2 5.18107 1.59569 -21.6941
42 1 4.95991 1.22759 -22.7271
43 2 4.24571 1.83221 -23.2985
44 2 4.45044 2.36427 -20.111
45 1 3.39564 0.58634 -20.8916
46 1 0.554312 5.39444 -22.7235
47 2 2.31818 3.65467 -22.1511
48 1 1.55769 3.52962 -20.0805
49 2 0.977717 4.42929 -20.1114
50 2 4.89167 5.96462 -22.2378
51 1 5.02813 7.00999 -22.6768
52 2 4.18032 5.28853 -19.6854
53 2 0.492821 6.44324 -22.3172
54 2 1.71361 1.68324 -19.1006
55 2 3.54523 1.91412 -16.6912
56 1 0.123298 0.481362 -17.3025
57 1 4.12598 2.15424 -15.8274
58 1 0.928754 2.33391 -19.6926
59 2 3.65757 1.20325 -18.926
60 1 3.78067 1.44622 -19.9557
61 2 0.172297 1.60987 -17.466
62 2 2.56205 3.73432 -19.7684
63 2 3.87947 3.68023 -18.1332
64 1 4.65542 4.39861 -17.8936
65 1 4.83142 5.42756 -18.8175
66 2 1.74808 3.51677 -15.7931
67 1 1.48363 3.26364 -14.7708
68 2 2.24995 4.46077 -25.2323
69 1 5.17571 3.12742 -15.844
70 1 1.79804 2.07915 -14.256
71 2 0.197886 3.58922 -24.1625
72 2 3.95229 1.66336 -14.8721
73 1 2.27368 0.978581 -13.6208
74 1 5.47517 4.04275 -16.8177
75 2 1.48476 5.17689 -13.814
76 2 2.92622 3.76173 -13.4252
77 2 1.18089 0.191945 -16.9535
78 2 0.0366673 4.80328 -14.6984
79 1 2.2944 5.35099 -25.9063
80 1 0.330804 4.39587 -23.3988
81 2 2.43638 0.0814193 -14.2168
82 2 0.0148354 6.29635 -17.5472
83 2 0.0625178 6.53744 -13.4772
84 2 5.55767 2.12004 -13.1934
85 2 5.66225 4.16432 -24.6637
86 1 2.13331 3.14254 -11.3716
87 1 0.785455 3.6127 -11.5164
88 1 2.63451 2.53032 -10.1127
89 2 2.8425 1.47035 -10.3612
90 2 3.9994 6.80412 -7.59633
91 2 3.74273 4.33549 -12.0383
92 1 3.21922 3.51443 -12.4154
93 2 5.60754 1.75103 -10.5448
94 2 4.63967 0.197114 -10.3705
95 2 2.52955 0.743635 -12.5543
96 2 0.241022 3.70628 -10.6459
97 2 4.30716 6.46681 -11.7857
98 1 3.4961 6.7469 -11.0686
99 2 2.96705 5.7931 -11.0045
100 2 1.19647 6.01563 -10.4387
101 1 0.123891 4.04485 -12.7105
102 2 4.99409 4.22221 -10.094
103 1 0.907236 7.03478 -10.0172
104 2 3.42357 1.30528 -7.48359
105 2 3.63549 2.95768 -9.89387
106 2 2.8155 1.66272 -7.74695
107 1 1.6416 2.76933 -8.97703
108 2 0.666428 2.57541 -9.34041
109 2 1.56093 2.7501 -6.89362
110 2 4.73199 3.95889 -7.38713
111 2 2.93121 4.69183 -9.57722
112 1 5.62994 4.06255 -7.93603
113 2 2.00279 6.242 -8.00839
114 1 2.00873 3.23047 -7.73727
115 1 3.18427 5.06224 -8.60156
116 1 3.73795 6.38518 -8.56366
117 1 2.81464 4.32469 -7.49691
118 2 2.96032 4.61479 -6.4557
119 2 5.13448 4.34903 -10.8429
120 1 1.58103 6.83689 -7.16185
121 2 5.63579 6.76607 -2.9487
122 2 2.57408 0.0562603 -4.965
123 2 0.403113 1.72173 -5.91057
124 1 0.562937 2.46452 -5.10314
125 2 4.4568 1.3308 -4.24338
126 1 1.53508 1.98112 -4.17909
127 1 2.52228 2.84075 -3.71911
128 1 1.37949 0.58229 -3.613
129 1 4.62227 0.585738 -3.40909
130 2 3.54348 2.78718 -4.1256
131 2 5.30352 2.37445 -5.93193
132 1 1.43805 6.0887 -5.84652
133 1 1.3535 6.58805 -4.5684
134 2 4.74961 4.30707 -4.65565
135 2 3.20739 5.97938 -4.04331
136 1 4.71255 4.53234 -3.61701
137 2 0.9663 5.10381 -3.46398
138 1 3.81799 5.61619 -3.18279
139 2 0.799748 0.0170388 -4.47066
140 2 1.45468 4.96044 -5.88439
141 1 2.23835 0.672842 -0.132741
142 1 0.485662 0.559003 -2.34521
143 1 3.94963 2.34297 0.0363066
144 2 0.351054 2.79806 -2.76038
145 1 0.2481 2.27893 -0.162001
146 1 0.901191 3.44167 -0.766536
147 1 4.50487 1.34567 -2.08257
148 1 4.64422 3.38945 -0.753783
149 1 3.57192 1.24794 -1.02888
150 2 3.97722 2.75779 -12.5877
151 1 0.339632 5.88377 0.134102
152 1 2.84638 4.92845 -2.25438
153 1 2.00586 4.12593 0.0452415
154 1 2.58378 5.27727 -0.761475
155 1 5.08699 3.5531 -2.31715
156 1 3.85674 5.85279 0.00262072
157 1 2.20117 3.78245 -2.78243
158 1 1.52298 6.44965 -0.718483
159 1 4.60174 6.81348 -2.57255
160 2 5.55079 5.88617 -1.34395
161 1 0.773539 3.68438 -2.2824
162 1 4.82714 6.65474 -0.906526
163 2 3.85613 4.05827 -1.08124
164 1 1.79976 7.12044 -2.23647
165 1 2.92825 3.18968 0.936076
166 1 2.07971 2.28184 1.79296
167 1 1.16085 1.48811 0.818964
168 1 4.83871 1.36469 0.929925
169 1 1.26542 3.1331 2.76636
170 1 4.78866 3.12972 2.6931
171 1 2.9971 1.38664 2.66819
172 1 0.328788 0.60038 1.77738
173 1 3.86127 0.490983 1.78344
174 1 2.15166 0.46913 3.61434
175 1 3.90745 2.23654 3.59381
176 1 0.390023 2.26255 3.69555
177 1 1.25045 4.89182 11.6843
178 1 3.89404 4.06289 1.80407
179 1 0.33382 4.10875 1.92534
180 1 4.74262 4.95981 0.921406
181 1 1.14914 4.97414 1.06742
182 1 3.0615 6.66289 1.04641
183 1 2.13497 5.80951 1.91843
184 1 4.8395 6.71087 2.69771
185 1 1.24729 6.68389 2.84845
186 1 3.02084 4.93666 2.775
187 1 3.93065 5.81335 3.65916
188 1 2.15135 4.05391 3.63903
189 1 0.367893 0.485419 5.44666
190 1 3.03442 3.14319 4.49803
191 1 2.14671 2.25809 5.42295
192 1 4.81315 1.38193 4.47229
193 1 1.24151 1.38455 4.5799
194 1 3.06291 1.37034 6.33609
195 1 1.32131 3.19386 6.30637
196 1 4.80662 3.15987 6.32727
197 1 3.89776 0.528792 5.38817
198 1 5.70767 5.85411 12.5343
199 1 0.427613 5.81657 3.71161
200 1 3.90096 4.06509 5.38515
201 1 0.382697 4.05444 5.44576
202 1 1.30239 4.93892 4.59174
203 1 4.80403 4.94889 4.48768
204 1 3.07318 6.72845 4.53037
205 1 2.19097 5.85705 5.4492
206 1 3.08791 4.93607 6.30915
207 1 4.87526 6.69698 6.27862
208 1 1.26631 6.75417 6.30817
209 1 2.17622 0.474211 7.18148
210 1 3.97406 0.442335 8.98457
211 1 3.07723 3.11279 8.15053
212 1 3.99912 2.223 7.27511
213 1 2.1649 2.20548 8.98658
214 1 4.88227 1.35706 8.13833
215 1 1.25875 1.38452 8.10533
216 1 0.403845 2.26885 7.18657
217 1 1.28242 3.12881 9.8238
218 1 4.77605 3.153 9.87985
219 1 3.06099 1.3892 9.88041
220 1 0.369834 0.459973 8.98421
221 1 1.21058 6.72511 13.4558
222 1 0.395176 4.08868 8.96574
223 1 3.90921 4.0415 9.0185
224 1 2.20039 4.06639 7.15911
225 1 0.343928 5.83048 7.19735
226 1 1.26302 4.96386 8.11744
227 1 4.84127 4.93129 8.09492
228 1 3.10104 6.69171 8.04184
229 1 3.99077 5.8261 7.16902
230 1 2.14621 5.8652 8.95557
231 1 3.05394 4.96693 9.87163
232 1 1.2508 6.75236 9.85346
233 1 4.79976 6.71809 9.8411
234 1 0.386101 2.26839 10.7581
235 1 3.08023 3.17164 11.6568
236 1 1.2732 1.37237 11.6738
237 1 4.84823 1.37961 11.6568
238 1 2.20275 2.21429 12.5347
239 1 3.93828 2.24777 10.7983
240 1 2.17367 0.488684 10.7243
241 1 0.377577 0.495827 12.5507
242 1 3.96995 0.466359 12.6205
243 1 4.8515 3.17175 13.3853
244 1 3.06876 1.34744 13.4372
245 1 1.32215 3.18193 13.4431
246 1 3.01463 6.71525 11.6918
247 1 3.95756 4.09245 12.5471
248 1 4.79561 6.72053 13.4099
249 1 4.84305 4.99182 11.6357
250 1 0.409028 5.85524 10.773
251 1 0.363464 4.02407 12.5344
252 1 3.90661 5.89843 10.7405
253 1 2.16066 5.79706 12.5687
254 1 2.19319 4.06119 10.7677
255 1 3.06213 4.97396 13.4451
256 1 5.7031 4.03592 10.7881
257 1 5.69417 0.448669 3.57167
258 1 5.66393 2.26528 1.82467
259 1 5.65641 2.31643 5.41489
260 1 5.69716 4.046 3.58715
261 1 3.92488 2.29091 14.2825
262 1 3.04506 3.14139 15.2542
263 1 4.84776 1.44731 15.2065
264 1 1.28306 1.41822 15.2911
265 1 2.15838 2.25116 16.1491
266 1 0.360547 2.25068 14.3814
267 1 3.94964 0.526052 16.1692
268 1 0.370909 0.491553 16.1702
269 1 2.12653 0.487246 14.341
270 1 1.24645 3.15514 17.0629
271 1 0.323119 5.79563 17.9465
272 1 3.96243 4.021 16.1478
273 1 0.379427 3.99001 16.1193
274 1 2.18699 4.04131 14.3451
275 1 1.26496 4.9005 15.226
276 1 4.78564 4.96295 15.2426
277 1 3.88816 5.81631 14.3549
278 1 3.00092 6.75377 15.2553
279 1 2.12357 5.80429 16.1359
280 1 0.34922 5.81882 14.3473
281 1 1.23358 6.72213 16.9802
282 1 4.79852 6.73933 16.9916
283 1 5.66792 6.02937 19.6508
284 1 3.03418 1.32292 17.0125
285 1 4.80716 3.18823 17.0464
286 1 3.88177 2.28699 17.9725
287 1 3.03225 3.18896 18.8902
288 1 4.84798 1.42704 18.8289
289 1 1.25868 1.42569 18.8236
290 1 2.14002 2.2834 19.7286
291 1 0.359531 2.2847 17.9576
292 1 2.14856 0.504011 17.9362
293 1 3.97294 0.465517 19.6893
294 1 0.290462 0.559832 19.6465
295 1 3.02498 4.89731 17.0292
296 1 3.05074 6.70312 18.7782
297 1 2.13054 4.0678 17.9676
298 1 1.23067 4.93232 18.8526
299 1 2.10257 5.87768 19.6778
300 1 0.421688 3.99776 19.7379
301 1 4.7925 5.03522 18.8452
302 1 3.92665 5.82497 17.8558
303 1 3.9306 4.11562 19.7563
304 1 5.70368 5.86579 16.1049
305 1 5.67845 4.06445 14.3251
306 1 5.70336 0.498807 17.9261
307 1 5.6669 2.2839 16.1399
308 1 1.59342 12.4058 -36.304
309 1 1.93506 11.1322 -36.1553
310 1 1.47647 13.7047 -36.5706
311 2 2.51337 8.13677 -34.9939
312 2 0.643283 8.13129 -36.4285
313 2 1.69882 10.3812 -34.217
314 1 1.94688 10.8365 -33.2615
315 1 1.36621 9.84962 -31.2367
316 2 2.69042 9.57458 -31.3588
317 1 2.23228 8.86364 -30.3539
318 1 3.19787 10.1858 -32.3407
319 1 4.54184 10.3308 -32.4287
320 2 3.91914 13.7843 -29.3022
321 2 2.36477 11.9153 -33.4032
322 1 0.902453 10.709 -32.2068
323 2 2.99168 13.9396 -30.7905
324 1 2.62526 7.95044 -29.3939
325 1 1.89639 7.58072 -28.2723
326 1 0.969211 7.18224 -27.3984
327 1 5.3097 12.6348 -28.0697
328 2 0.9153 10.4319 -27.9436
329 2 4.33669 12.1777 -27.6276
330 1 4.92378 13.7385 -29.0994
331 2 3.65129 7.60417 -29.4341
332 1 0.27077 10.5974 -28.8364
333 2 5.09307 13.4848 -26.5438
334 2 5.27664 10.1533 -25.0369
335 2 2.92784 7.8354 -23.3713
336 2 0.185186 8.54642 -24.7024
337 2 0.0330452 8.89849 -25.3773
338 2 0.903275 8.97458 -17.1435
339 1 5.42658 10.958 -25.6699
340 2 4.41521 11.1703 -26.0498
341 1 4.09935 11.1368 -13.6494
342 2 3.03485 7.30816 -26.0674
343 1 3.84469 7.53964 -23.016
344 1 5.03698 10.082 -21.5551
345 2 2.36542 9.84032 -20.7118
346 2 5.24314 9.62814 -22.5588
347 1 4.64888 10.6604 -20.5586
348 1 2.25956 10.5932 -19.8752
349 2 1.15623 13.143 -13.4957
350 2 3.58344 12.3254 -19.9304
351 2 0.527173 13.599 -21.4418
352 1 0.134233 13.1708 -20.5154
353 2 0.284458 12.0507 -20.5138
354 2 3.17219 9.49454 -17.9946
355 2 3.4601 9.49469 -18.661
356 2 1.13148 8.40166 -17.4657
357 1 1.30341 13.0156 -14.5701
358 1 3.54526 11.2688 -19.6747
359 1 1.16436 10.8618 -19.1323
360 1 5.19478 11.0894 -17.7636
361 1 2.83072 11.4826 -17.2804
362 1 1.3375 11.6471 -17.8251
363 1 3.87266 11.2613 -18.1688
364 1 1.13377 13.0931 -17.9681
365 2 0.71735 11.2042 -17.1105
366 1 0.622103 13.7271 -19.1421
367 1 1.4793 13.9056 -16.893
368 2 5.37357 12.9287 -24.7073
369 1 5.16395 7.70258 -15.3569
370 2 4.26225 7.25753 -15.8425
371 2 1.95967 7.90035 -15.2928
372 1 2.20955 9.47614 -13.935
373 2 2.27303 9.58528 -16.1281
374 1 2.16972 8.91754 -15.152
375 2 0.437939 9.75741 -14.2033
376 2 5.11355 7.25574 -20.6593
377 2 3.97189 13.4585 -14.6626
378 1 2.60463 10.9448 -13.7744
379 1 5.42449 12.2351 -15.6174
380 1 4.16351 12.9898 -15.6042
381 2 1.22104 10.995 -15.406
382 1 3.01854 12.0335 -16.0008
383 2 4.69926 10.8354 -14.5222
384 1 0.668873 13.8451 -15.6625
385 1 1.97096 11.7195 -14.9834
386 2 4.14841 13.8052 -16.3419
387 2 2.83984 7.47309 -11.5301
388 1 4.01638 7.29261 -9.70915
389 2 1.08966 10.0116 -11.543
390 1 0.582941 8.01989 -11.017
391 1 0.404652 9.20474 -11.7916
392 1 0.176976 7.4073 -7.64579
393 1 4.67776 11.5034 -12.496
394 2 2.19777 13.1988 -11.6071
395 1 0.221224 12.525 -11.0617
396 1 5.07759 11.8436 -11.2079
397 2 0.774043 11.6853 -10.6086
398 1 4.24495 11.5494 -10.1283
399 2 2.15932 11.3068 -12.8875
400 2 3.33472 10.9864 -10.3107
401 1 5.58013 7.47971 -9.81474
402 1 1.27713 13.6374 -11.3593
403 1 5.67662 7.61578 -0.00608789
404 2 3.64453 8.31986 -9.51097
405 2 1.81971 7.44783 -9.45783
406 2 5.33274 8.11005 -7.60067
407 2 0.890723 10.199 -8.57503
408 2 2.28845 7.69373 -7.02092
409 2 4.32679 10.1653 -7.99767
410 1 4.99338 10.7933 -7.48946
411 2 4.58544 11.1627 -6.52144
412 1 3.99296 12.9472 0.156368
413 1 0.188653 11.041 -8.46608
414 2 4.26874 11.9907 -9.13968
415 2 4.51923 13.6292 -8.98524
416 1 0.644003 12.1419 -7.73327
417 2 1.90355 13.1411 -8.75254
418 1 1.76889 12.0486 -6.67503
419 2 2.70338 12.4309 -7.02489
420 2 1.96692 11.0176 -6.38384
421 2 5.28661 8.01342 -12.0344
422 2 5.6967 12.6004 -6.48633
423 2 4.93682 8.764 -6.09257
424 2 1.18126 9.88295 -4.46841
425 2 3.79505 8.05111 -4.15437
426 2 2.41918 8.87876 -3.65605
427 1 1.8916 9.80961 -3.6234
428 1 4.82001 9.53219 -3.20952
429 2 0.524832 8.16825 -3.5527
430 1 1.0992 7.24475 -3.39348
431 1 4.00498 8.22414 -3.14361
432 2 2.70667 8.75964 -5.29613
433 2 2.19677 8.96948 -5.79401
434 2 0.0419042 11.9162 -4.55583
435 2 1.4947 12.6207 -5.77272
436 1 4.21219 10.8127 -3.22132
437 1 2.85026 11.0781 -3.86111
438 2 2.87775 11.2505 -4.88665
439 2 3.19236 13.1912 -3.68528
440 1 0.405617 11.7311 -3.53415
441 1 1.74304 12.0349 -3.19039
442 2 5.33131 9.71481 -10.009
443 1 0.0668266 9.54528 -0.330802
444 1 2.1392 7.62602 0.168794
445 1 4.58341 10.395 -0.651633
446 1 1.03955 10.0047 -2.35267
447 1 1.20481 10.2204 -0.979916
448 1 2.98924 8.46092 -0.699196
449 1 2.85001 8.10244 -2.03055
450 1 3.88467 9.32075 0.105658
451 2 2.03501 8.89356 -13.0167
452 1 2.05987 11.0202 -0.0593654
453 1 2.1503 13.291 -1.09756
454 1 4.72798 13.9399 -0.762954
455 2 4.00079 11.0126 -1.34859
456 1 2.88369 12.1672 -0.570071
457 1 4.36262 14.2513 -2.09294
458 2 0.560117 13.7803 -0.467987
459 1 0.167408 12.8386 -0.0163885
460 1 1.83896 13.2094 -2.44825
461 1 4.7662 11.9791 -2.68782
462 1 4.01961 13.0955 -2.90766
463 1 5.61559 11.2013 0.101377
464 2 0.2979 8.46046 -7.84856
465 1 1.87867 14.2377 -8.94808
466 1 1.04897 14.2381 -4.49755
467 2 5.16111 13.1105 -6.25355
468 2 0.785573 14.2388 -12.2001
469 2 3.08255 14.1689 -10.5638
470 2 0.0477719 10.6261 -6.46733
471 1 0.0108968 14.2465 -6.6559
472 1 3.01243 10.2623 0.980683
473 1 2.20819 9.3778 1.9241
474 1 1.2517 8.41629 1.13126
475 1 4.79404 8.48391 0.948042
476 1 4.83143 10.3026 2.68253
477 1 3.06426 8.47169 2.78751
478 1 1.23208 10.2778 2.69955
479 1 0.305073 7.52069 1.96366
480 1 3.92592 7.61869 1.8624
481 2 0.539782 9.18865 1.34239
482 1 0.329001 9.36513 3.64213
483 1 2.18159 7.59287 3.64543
484 1 0.293186 11.1706 1.80296
485 1 3.91958 11.2075 1.79427
486 1 1.16914 11.9949 0.829047
487 1 4.83757 12.0982 1.02419
488 1 2.98226 13.7929 0.974593
489 1 2.11987 12.9194 1.77073
490 1 3.0466 12.0762 2.72099
491 1 1.22015 13.8509 2.68043
492 1 4.83361 13.8501 2.69276
493 1 3.92405 13.0064 3.61141
494 1 0.300855 12.9769 3.59341
495 1 2.08402 11.1566 3.62463
496 1 0.386069 11.2168 12.5404
497 1 3.95702 9.43463 3.65073
498 1 3.05872 10.3051 4.53652
499 1 2.14047 9.44056 5.40075
500 1 1.275 8.49155 4.50332
501 1 4.79143 8.52749 4.53018
502 1 1.22035 10.3356 6.29907
503 1 3.02857 8.52687 6.30069
504 1 4.81552 10.372 6.32903
505 1 0.349319 7.62202 5.42285
506 1 3.90646 7.63853 5.46047
507 1 3.88858 11.225 5.41272
508 1 0.328737 11.1965 5.35956
509 1 1.1645 12.0726 4.49121
510 1 4.77407 12.1159 4.53501
511 1 2.98114 13.8477 4.48788
512 1 2.09229 12.9723 5.37074
513 1 2.98181 12.1261 6.25973
514 1 1.21231 13.8651 6.26117
515 1 4.8403 13.8669 6.31111
516 1 0.371587 7.58992 8.94591
517 1 3.96496 7.59604 8.91357
518 1 3.047 10.3432 8.05618
519 1 3.93878 9.43239 7.18129
520 1 2.16316 9.43241 8.94812
521 1 4.83371 8.52371 8.06448
522 1 1.29341 8.48308 7.98983
523 1 3.06823 8.50718 9.80188
524 1 1.30677 10.3091 9.87463
525 1 0.35586 9.42622 7.11103
526 1 4.80996 10.2939 9.90267
527 1 2.16813 7.59951 7.14546
528 1 0.395938 11.2429 8.95855
529 1 3.93043 11.2299 8.91875
530 1 2.14355 11.2016 7.23465
531 1 0.388081 12.9889 7.17913
532 1 4.83459 12.0979 8.08247
533 1 1.27351 12.0927 8.04109
534 1 3.032 13.9297 8.04824
535 1 3.95265 13.0025 7.18808
536 1 2.15263 12.9802 8.912
537 1 4.85198 13.9164 9.85933
538 1 3.04606 12.0691 9.83555
539 1 1.26361 13.888 9.85817
540 1 1.26639 12.0986 11.6696
541 1 1.29048 10.2826 13.4144
542 1 3.04751 8.49893 13.4378
543 1 0.424337 7.64095 12.5306
544 1 2.18461 7.64362 10.7589
545 1 1.28978 8.51294 11.6616
546 1 2.15618 9.38058 12.5515
547 1 4.80975 8.51412 11.6727
548 1 0.392667 9.36398 10.7355
549 1 3.03813 10.2744 11.7004
550 1 3.91543 9.43734 10.7949
551 1 3.90401 7.59745 12.4827
552 1 4.81718 10.3132 13.4141
553 1 3.05022 13.8538 11.6519
554 1 3.94824 12.9792 10.7299
555 1 4.83609 13.8331 13.4332
556 1 3.90366 11.2194 12.5071
557 1 1.26814 13.861 13.4237
558 1 2.15953 12.9563 12.5925
559 1 3.01335 12.1218 13.4412
560 1 2.16638 11.2046 10.7758
561 1 4.81272 12.1039 11.6145
562 1 0.37929 12.9723 10.7418
563 1 5.68195 9.42005 5.40946
564 1 5.64605 9.35979 1.80566
565 1 5.67278 12.9476 5.42584
566 1 5.65809 11.2103 3.63352
567 1 5.67738 11.2326 7.19238
568 1 5.69925 12.9642 12.5062
569 1 3.92099 9.43285 14.3345
570 1 3.02929 10.3093 15.243
571 1 4.78179 8.53555 15.2426
572 1 1.26696 8.494 15.2645
573 1 2.13935 9.37021 16.0892
574 1 0.370492 9.35927 14.3407
575 1 3.88399 7.64412 16.1395
576 1 2.09741 7.61479 14.3527
577 1 0.405055 7.6177 16.1225
578 1 4.84488 10.3312 16.9986
579 1 3.01884 8.51009 17.032
580 1 3.92936 11.1939 16.1145
581 1 2.16693 11.203 14.3645
582 1 0.345381 11.1482 16.1133
583 1 4.84356 12.1412 15.2125
584 1 1.26472 12.0755 15.2412
585 1 3.9414 13.006 14.2981
586 1 3.03086 13.831 15.2461
587 1 2.10587 12.9571 16.1183
588 1 0.359561 12.9661 14.3511
589 1 1.25002 13.8385 16.9868
590 1 4.83448 13.8788 16.9848
591 1 3.02179 12.0691 17.0231
592 1 2.18131 12.9906 19.7255
593 1 1.26515 10.2436 16.9774
594 1 2.10053 7.63457 17.9184
595 1 4.84771 8.53244 18.8005
596 1 3.87822 9.46206 17.9262
597 1 3.02173 10.2837 18.7892
598 1 1.2582 8.54557 18.8422
599 1 2.15711 9.41735 19.7233
600 1 0.381474 9.40312 17.9177
601 1 0.307892 7.67706 19.7226
602 1 3.89264 7.64301 19.6504
603 1 4.81722 12.1333 18.7996
604 1 2.14826 11.1613 17.8575
605 1 3.86434 12.9739 17.9028
606 1 0.384667 12.987 17.9623
607 1 3.00656 13.9056 18.8184
608 1 3.97049 11.1804 19.6412
609 1 1.29667 12.0913 18.8201
610 1 0.426238 11.1361 19.6583
611 1 5.70066 11.2521 14.2689
612 1 5.58902 13.0886 19.6428
613 1 5.69192 13.0366 16.0712
614 1 5.69794 7.59274 14.3186
615 2 1.29551 14.7689 -36.8135
616 1 4.39644 15.6469 -31.5908
617 2 4.51784 16.4869 -32.455
618 2 2.52076 15.0069 -32.2903
619 1 3.28658 14.8521 -31.3911
620 1 0.409404 18.1949 -31.786
621 2 1.11666 18.9602 -31.5019
622 1 3.44626 20.7856 -30.3514
623 2 5.67284 20.9056 -31.5454
624 2 5.60887 18.1102 -30.6435
625 1 5.60397 15.3562 -30.9305
626 2 3.50848 20.1669 -31.3361
627 2 4.57376 16.8011 -29.0177
628 2 4.37836 15.9492 -27.4774
629 2 3.47325 17.4121 -27.6266
630 1 4.43022 16.9162 -27.9498
631 1 1.15612 16.5098 -29.4233
632 2 0.893692 16.2393 -30.5527
633 1 5.58079 17.6869 -27.2605
634 2 1.0472 17.6005 -29.1559
635 1 4.64234 19.787 -28.1581
636 1 5.47878 19.1844 -27.3519
637 1 4.04754 20.2909 -29.2439
638 1 0.763345 19.3414 -27.2068
639 2 0.562751 20.0317 -28.0932
640 2 1.62639 18.8074 -27.4965
641 2 1.52217 15.7634 -28.7192
642 2 5.69306 18.6386 -32.2431
643 2 5.30284 15.8785 -23.5711
644 1 3.90043 16.7865 -25.2934
645 2 5.45699 15.8439 -21.918
646 2 4.63853 15.5917 -23.6664
647 2 4.11613 15.6265 -25.6104
648 1 3.51164 17.9167 -25.1418
649 2 3.34642 18.8873 -25.3754
650 1 1.08953 20.8417 -24.9036
651 1 1.06782 20.1308 -25.8582
652 2 4.53095 20.9057 -23.9924
653 1 5.37477 20.8698 -23.3519
654 2 0.111678 18.9147 -16.1018
655 2 3.15381 14.69 -20.2351
656 2 1.93894 17.7352 -14.9877
657 2 0.417633 14.6981 -19.1376
658 2 5.58499 18.8414 -23.7311
659 2 1.31578 21.2448 -22.5996
660 2 2.10478 20.9529 -19.0164
661 2 0.00669115 19.0569 -18.639
662 2 5.01116 19.1047 -22.1428
663 2 0.682625 15.9416 -17.8051
664 2 3.51728 18.1022 -21.0133
665 2 4.03106 18.5823 -20.6892
666 1 2.40802 14.9368 -17.1072
667 2 3.23654 14.6107 -17.8646
668 1 0.632072 16.964 -18.1433
669 1 2.64867 16.2157 -16.5586
670 2 1.12162 18.8294 -14.0454
671 2 3.65559 18.0132 -15.5184
672 1 3.13871 17.6937 -16.5189
673 2 3.9353 17.8098 -17.2348
674 1 0.516765 18.1205 -19.0786
675 2 1.54446 18.3667 -19.5027
676 2 2.27152 18.2922 -16.715
677 1 1.60945 17.8942 -13.9849
678 2 1.10517 15.8322 -14.0693
679 2 0.536763 14.802 -15.2513
680 2 2.56941 17.85 -13.3824
681 1 0.699699 16.6966 -13.6167
682 2 4.87353 19.5534 -15.2027
683 2 3.80013 19.0012 -13.7481
684 1 4.79653 19.0203 -14.2259
685 2 3.55393 15.3475 -20.2271
686 2 5.65527 17.3706 -26.1074
687 1 0.763552 16.0394 -10.393
688 2 2.68072 16.5562 -10.6106
689 2 1.15135 16.5376 -11.2512
690 1 3.98631 14.8879 -10.4114
691 2 4.44054 15.0534 -11.3691
692 1 1.37122 14.6301 -10.2078
693 1 4.59799 17.4003 -10.3335
694 2 4.08197 17.561 -12.456
695 2 1.05102 21.2373 -8.66473
696 1 3.48557 16.3475 -9.95922
697 1 3.00994 19.3232 -0.783327
698 1 4.54206 18.1095 -11.6658
699 1 2.40511 19.5538 -10.8988
700 2 2.3075 19.4578 -11.9577
701 2 0.803174 18.3351 -10.2843
702 2 3.94058 18.9888 -11.6371
703 2 3.13168 20.3399 -10.7361
704 1 1.64352 19.036 -9.97095
705 1 5.11955 14.3853 -9.50406
706 2 1.0727 16.7013 -9.58899
707 1 3.50047 17.279 -7.70039
708 1 3.1182 16.2454 -8.52472
709 1 2.49217 15.0996 -7.98517
710 1 1.21578 20.8679 -0.829089
711 1 2.42231 14.8495 -6.63152
712 2 5.00878 15.5776 -7.67613
713 2 5.51708 17.5121 -9.7525
714 1 4.07819 17.9327 -2.78316
715 2 0.0119669 20.4035 -4.5459
716 2 1.43111 18.6572 -7.81983
717 1 2.03363 19.2997 -8.45915
718 1 1.70829 20.7087 -8.05998
719 1 3.45579 18.7297 -8.27804
720 2 4.09998 18.7893 -9.21625
721 1 4.17334 19.5492 -7.10361
722 2 2.1725 21.2186 -7.22293
723 1 4.47381 20.8633 -6.87037
724 1 4.09129 17.1798 -6.42883
725 1 0.645225 16.2256 -4.60544
726 2 3.34464 15.041 -6.09034
727 1 1.94095 14.4665 -3.20559
728 2 4.2372 16.3644 -5.65574
729 2 1.65024 15.9231 -4.97094
730 1 0.708792 16.235 -3.04369
731 1 0.259557 17.5247 -5.29504
732 1 1.31148 14.4219 -5.89724
733 2 5.28671 21.0905 -6.22727
734 1 3.91082 20.0913 -0.0037465
735 1 2.76521 17.8853 -3.08041
736 1 4.86748 21.0307 -0.998927
737 1 2.1957 19.0257 -3.94807
738 1 0.846637 18.643 -4.739
739 1 2.9413 20.319 -4.0621
740 2 3.23179 20.5688 -5.03421
741 1 0.337653 21.0132 -3.64796
742 1 0.748994 18.849 -3.1882
743 2 4.23353 18.8788 -4.9776
744 1 4.62281 18.5642 -5.93251
745 1 4.11286 20.362 -3.15117
746 1 3.94475 16.4459 -0.0287944
747 1 2.17622 14.6404 -0.0276154
748 1 0.379655 16.5415 -0.143272
749 2 2.77532 17.2385 -1.15109
750 1 4.9597 16.8183 -2.2699
751 1 2.61423 15.4231 -2.3522
752 1 5.02525 15.3461 -2.70514
753 1 3.07141 15.4938 -1.0415
754 1 1.57254 17.299 -0.924929
755 1 1.6086 17.1696 -2.5075
756 1 4.97856 17.2602 -0.802343
757 1 4.82762 19.1477 -2.87848
758 1 0.289485 20.0315 -0.0206411
759 2 5.14316 19.9621 -1.27408
760 1 2.18546 18.457 0.0131162
761 2 1.35334 20.8129 -1.93832
762 2 0.0406107 17.4375 -6.32395
763 2 5.68479 18.4413 -5.88478
764 1 3.0367 17.4647 0.856695
765 1 2.15058 16.5433 1.78178
766 1 1.28491 15.6066 0.82263
767 1 4.82304 15.639 0.907732
768 1 4.78473 17.4542 2.6587
769 1 2.99057 15.6421 2.65255
770 1 1.23551 17.3997 2.65331
771 1 3.91353 14.7586 1.83221
772 1 0.364784 14.7543 1.75932
773 1 3.95345 16.5243 3.54717
774 1 0.331304 16.51 3.51853
775 1 2.1105 14.7479 3.55231
776 1 0.314374 18.3228 1.78095
777 1 3.93182 18.3053 1.77435
778 1 4.89509 19.1724 0.859979
779 1 1.20537 19.2025 0.877352
780 1 3.06449 20.9819 0.880713
781 1 2.12769 20.0737 1.78212
782 1 3.04809 19.1828 2.68385
783 1 1.2492 20.9858 2.64871
784 1 4.8633 20.9287 2.66163
785 1 3.94943 20.1172 3.53047
786 1 2.14097 18.3214 3.54087
787 1 0.384417 20.0391 3.52668
788 1 0.364102 14.7676 5.38679
789 1 3.02828 17.4197 4.44583
790 1 2.1119 16.5312 5.34353
791 1 4.79288 15.6209 4.43282
792 1 1.2332 15.6221 4.46568
793 1 4.83563 17.4456 6.25623
794 1 3.01791 15.6834 6.23808
795 1 1.24949 17.4791 6.30223
796 1 3.94463 14.7268 5.37765
797 1 0.305359 18.3353 5.40488
798 1 3.94164 18.3406 5.36201
799 1 4.83194 19.1646 4.45495
800 1 1.21903 19.2044 4.46996
801 1 3.04493 20.9597 4.43887
802 1 2.12392 20.1034 5.32979
803 1 1.26723 20.9742 6.22234
804 1 4.86383 21.0035 6.23265
805 1 3.046 19.1952 6.22915
806 1 2.19361 20.0606 12.5512
807 1 3.92007 14.8228 8.9401
808 1 0.339567 14.8241 8.97124
809 1 3.05895 17.4813 8.02745
810 1 3.95963 16.5584 7.14336
811 1 2.13912 16.5679 8.9265
812 1 4.83642 15.699 8.05864
813 1 1.25959 15.6725 8.08422
814 1 3.03642 15.6378 9.88673
815 1 1.257 17.4382 9.83481
816 1 0.364518 16.57 7.20246
817 1 4.80838 17.4516 9.84238
818 1 2.12052 14.7741 7.15939
819 1 3.91196 18.3341 12.5014
820 1 0.406907 18.2907 12.5579
821 1 0.35623 18.3451 8.98924
822 1 3.90708 18.3227 8.93019
823 1 2.14342 18.3536 7.16736
824 1 0.345798 20.121 7.12889
825 1 4.82496 19.2542 8.04211
826 1 1.28495 19.2248 8.06141
827 1 3.03974 21.0157 8.06114
828 1 3.90698 20.1185 7.168
829 1 2.15406 20.1233 8.95501
830 1 4.83451 21.0766 9.80623
831 1 3.06734 19.1972 9.84212
832 1 1.26686 20.9734 9.85509
833 1 3.94558 14.7683 12.4975
834 1 0.34374 14.7083 12.5029
835 1 4.77977 15.7065 11.6868
836 1 3.0458 17.4375 11.6443
837 1 2.15617 16.5191 12.5053
838 1 1.229 15.6253 11.6285
839 1 0.335808 16.5639 10.763
840 1 3.97006 16.5653 10.7899
841 1 2.17229 14.7488 10.7463
842 1 1.24588 17.3797 13.3981
843 1 4.86047 17.4413 13.4515
844 1 3.04567 15.6378 13.42
845 1 1.28988 20.9628 13.423
846 1 3.93432 20.1599 10.6869
847 1 4.79553 19.2533 11.6526
848 1 1.30857 19.187 11.6611
849 1 3.03104 20.9986 11.6532
850 1 2.17972 18.2685 10.7202
851 1 0.381072 20.0972 10.775
852 1 4.83693 21.0164 13.4283
853 1 3.02636 19.2118 13.4014
854 1 5.65626 18.3286 3.56664
855 1 5.67785 16.5782 5.38635
856 1 5.68806 16.51 1.80723
857 1 5.70166 16.5603 9.00595
858 1 5.70303 14.7725 10.7736
859 1 5.7059 14.7367 3.59752
860 1 5.70432 16.5789 12.5679
861 1 3.91674 16.5112 14.3278
862 1 3.05609 17.3905 15.2046
863 1 1.23134 15.6127 15.2164
864 1 4.80999 15.6413 15.1915
865 1 2.14604 16.4917 16.1062
866 1 0.384313 16.4579 14.2515
867 1 2.1726 14.761 14.3022
868 1 3.9426 14.7362 16.1153
869 1 0.357872 14.7428 16.1099
870 1 4.8512 17.4174 16.9348
871 1 1.29979 17.4025 16.9603
872 1 3.96323 18.2644 19.565
873 1 3.94692 18.341 16.09
874 1 2.14438 18.2654 14.2769
875 1 0.390202 18.2699 16.0998
876 1 4.83582 19.2212 15.1602
877 1 1.29376 19.1894 15.204
878 1 3.88746 20.1151 14.2957
879 1 3.06185 21.0119 15.1888
880 1 2.1524 20.1351 16.1121
881 1 0.420614 20.087 14.2975
882 1 3.02951 19.2098 17.018
883 1 1.26822 20.997 16.9636
884 1 3.07836 15.6299 16.9638
885 1 2.2099 16.5242 19.6164
886 1 3.95132 16.5321 17.861
887 1 3.06144 17.3992 18.7191
888 1 1.22278 15.6295 18.8422
889 1 4.80295 15.6856 18.7393
890 1 0.34358 16.5479 17.8904
891 1 2.12102 14.7584 17.8915
892 1 0.337531 14.7395 19.7044
893 1 3.88757 14.8442 19.5899
894 1 4.85363 19.2049 18.7447
895 1 2.19835 20.1544 19.5885
896 1 4.82504 21.0348 17.0138
897 1 0.363739 18.4126 19.6913
898 1 3.05202 20.9922 18.7176
899 1 2.14601 18.291 17.8699
900 1 3.96757 20.0917 17.8547
901 1 1.28676 19.2364 18.751
902 1 0.389812 20.0789 17.8683
903 1 5.70063 14.787 17.9027
904 1 5.69871 16.5368 19.6631
905 1 5.69941 14.7872 14.2739
906 2 2.90994 21.7018 -30.4393
907 1 1.44644 27.1076 -31.1345
908 1 1.96068 26.3719 -30.1369
909 2 2.02124 28.0058 -31.4031
910 1 0.346402 26.8627 -31.8165
911 1 0.056021 23.9276 -29.012
912 2 5.53818 27.0387 -26.8062
913 2 1.20581 24.3181 -27.1836
914 1 1.12032 24.5773 -28.2434
915 1 2.01949 25.3121 -29.0441
916 1 4.68088 26.3014 -29.7655
917 1 3.34539 26.1244 -29.3274
918 2 5.65207 26.3158 -29.7107
919 1 0.754359 21.5944 -23.5643
920 2 4.46405 24.9612 -24.1558
921 1 0.827703 23.4812 -25.2957
922 1 0.850261 23.0217 -23.8842
923 1 0.204769 22.7898 -26.279
924 2 1.55278 24.2423 -25.4767
925 1 3.75931 25.7307 -24.3405
926 1 4.10098 26.6716 -25.3257
927 2 3.18378 27.3363 -25.6743
928 1 2.70001 25.7405 -23.4162
929 1 5.40771 26.6482 -25.7977
930 1 0.80562 23.8911 -22.7613
931 2 1.11266 22.5471 -20.9095
932 1 1.17391 22.6183 -19.7749
933 2 1.40335 23.6342 -19.5334
934 1 0.92495 25.0357 -21.9985
935 2 5.10321 21.4379 -22.5125
936 1 0.282933 26.3349 -20.0593
937 2 5.52069 26.1585 -23.2736
938 1 1.84479 26.0248 -22.317
939 1 1.98661 27.2578 -21.6677
940 2 1.07015 27.8274 -21.4189
941 1 3.23033 27.8649 -21.493
942 2 4.14786 27.2931 -21.8345
943 2 4.59746 27.5002 -15.06
944 1 0.0569133 25.213 -20.8887
945 1 2.52237 21.8918 -19.3768
946 2 3.0611 21.6111 -20.2763
947 2 0.875797 27.4029 -14.1703
948 1 0.513143 27.1832 -19.0775
949 2 1.46245 27.1604 -18.6152
950 2 3.14573 22.4507 -18.7985
951 2 5.31323 22.937 -16.3933
952 2 3.84806 23.0605 -15.1855
953 1 5.61764 24.2693 -14.638
954 2 0.655576 22.1749 -13.6533
955 2 5.32825 22.1305 -14.7306
956 1 4.97115 22.972 -15.3306
957 2 4.48282 22.9692 -25.5261
958 2 4.07265 23.6096 -25.6827
959 2 0.0709525 23.8209 -13.7358
960 1 5.70109 24.6094 -13.4065
961 2 5.58656 21.5147 -20.037
962 1 2.40361 22.7105 -11.2101
963 2 1.76261 21.8365 -11.0223
964 2 4.22344 24.4156 -10.9887
965 1 4.80346 23.577 -10.4941
966 1 1.83662 23.5743 -12.3484
967 2 2.52566 23.1597 -10.2603
968 2 3.32226 22.3117 -11.599
969 1 4.11471 26.7168 -10.0389
970 2 1.39326 25.5243 -10.6757
971 2 3.36795 25.9383 -10.098
972 2 4.46603 27.3129 -12.6507
973 1 1.16959 26.4519 -10.2277
974 2 1.15662 27.3357 -10.871
975 1 3.65308 28.1001 -10.2821
976 1 1.72428 26.4245 -1.90741