LAMMPS data file from restart file: timestep = 1, procs = 1

0 atoms

2 atom types

0 3.567 xlo xhi
0 3.567 ylo yhi
-0.0 5.3505 zlo zhi

Masses

1 12.01
2 3.016

Atoms
