LAMMPS data file from restart file: timestep = 1, procs = 1

8 atoms

2 atom types

0 4.26 xlo xhi #3 times the carbon bond length
0 4.91902429  ylo yhi #modulus of atom vectors
0 3.355 zlo zhi

Masses

1 12.01
2 1.0079

Atoms

1 1 1.0650000000 0.6148780400 1.6775
2 1 0.3550000000 1.8446341100 1.6775
3 1 1.0650000000 3.0743901800 1.6775 
4 1 0.3550000000 4.3041462600 1.6775 
5 1 2.4850000000 0.6148780400 1.6775 
6 1 3.1950000000 1.8446341100 1.6775 
7 1 2.4850000000 3.0743901800 1.6775 
8 1 3.1950000000 4.3041462600 1.6775 
