LAMMPS data file from restart file: timestep = 1, procs = 1

12600 atoms

2 atom types

-1 35.126083 xlo xhi
-1 34.39094844 ylo yhi
-3 71.34 zlo zhi

Masses

1 12.01
2 1.0079

Atoms

1 1 0.0 0.0 2.52232
2 1 0.8918 1.261161 2.522285
3 1 2.6752 3.6e-05 3.78341
4 1 2.6752 3.6e-05 1.26116
5 1 3.567 0.0 2.52232
6 1 4.4588 1.261161 2.522285
7 1 6.2422 3.6e-05 3.78341
8 1 6.2422 3.6e-05 1.26116
9 1 7.134 0.0 2.52232
10 1 8.0258 1.261161 2.522285
11 1 9.8092 3.6e-05 3.78341
12 1 9.8092 3.6e-05 1.26116
13 1 10.701 0.0 2.52232
14 1 11.5928 1.261161 2.522285
15 1 13.3762 3.6e-05 3.78341
16 1 13.3762 3.6e-05 1.26116
17 1 14.268 0.0 2.52232
18 1 15.1598 1.261161 2.522285
19 1 16.9432 3.6e-05 3.78341
20 1 16.9432 3.6e-05 1.26116
21 1 17.835 0.0 2.52232
22 1 18.7268 1.261161 2.522285
23 1 20.5103 3.6e-05 3.78341
24 1 20.5103 3.6e-05 1.26116
25 1 21.402 0.0 2.52232
26 1 22.2938 1.261161 2.522285
27 1 24.0773 3.6e-05 3.78341
28 1 24.0773 3.6e-05 1.26116
29 1 24.969 0.0 2.52232
30 1 25.8608 1.261161 2.522285
31 1 27.6443 3.6e-05 3.78341
32 1 27.6443 3.6e-05 1.26116
33 1 28.536 0.0 2.52232
34 1 29.4278 1.261161 2.522285
35 1 31.2113 3.6e-05 3.78341
36 1 31.2113 3.6e-05 1.26116
37 1 32.103 0.0 2.52232
38 1 32.9948 1.261161 2.522285
39 1 34.7783 3.6e-05 3.78341
40 1 34.7783 3.6e-05 1.26116
41 1 0.0 0.0 7e-05
42 1 0.0 2.52225 7e-05
43 1 1.7835 1.261125 1.261195
44 1 0.8918 1.261161 3.5e-05
45 1 0.8918 3.783411 3.5e-05
46 1 2.6752 2.522286 1.26116
47 1 3.567 0.0 7e-05
48 1 3.567 2.52225 7e-05
49 1 5.3505 1.261125 1.261195
50 1 4.4588 1.261161 3.5e-05
51 1 4.4588 3.783411 3.5e-05
52 1 6.2422 2.522286 1.26116
53 1 7.134 0.0 7e-05
54 1 7.134 2.52225 7e-05
55 1 8.9175 1.261125 1.261195
56 1 8.0258 1.261161 3.5e-05
57 1 8.0258 3.783411 3.5e-05
58 1 9.8092 2.522286 1.26116
59 1 10.701 0.0 7e-05
60 1 10.701 2.52225 7e-05
61 1 12.4845 1.261125 1.261195
62 1 11.5928 1.261161 3.5e-05
63 1 11.5928 3.783411 3.5e-05
64 1 13.3762 2.522286 1.26116
65 1 14.268 0.0 7e-05
66 1 14.268 2.52225 7e-05
67 1 16.0515 1.261125 1.261195
68 1 15.1598 1.261161 3.5e-05
69 1 15.1598 3.783411 3.5e-05
70 1 16.9432 2.522286 1.26116
71 1 17.835 0.0 7e-05
72 1 17.835 2.52225 7e-05
73 1 19.6185 1.261125 1.261195
74 1 18.7268 1.261161 3.5e-05
75 1 18.7268 3.783411 3.5e-05
76 1 20.5103 2.522286 1.26116
77 1 21.402 0.0 7e-05
78 1 21.402 2.52225 7e-05
79 1 23.1855 1.261125 1.261195
80 1 22.2938 1.261161 3.5e-05
81 1 22.2938 3.783411 3.5e-05
82 1 24.0773 2.522286 1.26116
83 1 24.969 0.0 7e-05
84 1 24.969 2.52225 7e-05
85 1 26.7525 1.261125 1.261195
86 1 25.8608 1.261161 3.5e-05
87 1 25.8608 3.783411 3.5e-05
88 1 27.6443 2.522286 1.26116
89 1 28.536 0.0 7e-05
90 1 28.536 2.52225 7e-05
91 1 30.3195 1.261125 1.261195
92 1 29.4278 1.261161 3.5e-05
93 1 29.4278 3.783411 3.5e-05
94 1 31.2113 2.522286 1.26116
95 1 32.103 0.0 7e-05
96 1 32.103 2.52225 7e-05
97 1 33.8865 1.261125 1.261195
98 1 32.9948 1.261161 3.5e-05
99 1 32.9948 3.783411 3.5e-05
100 1 34.7783 2.522286 1.26116
101 1 0.0 0.0 7.56682
102 1 0.8918 1.261161 7.566785
103 1 2.6752 3.6e-05 8.827909
104 1 2.6752 3.6e-05 6.30566
105 1 3.567 0.0 7.56682
106 1 4.4588 1.261161 7.566785
107 1 6.2422 3.6e-05 8.827909
108 1 6.2422 3.6e-05 6.30566
109 1 7.134 0.0 7.56682
110 1 8.0258 1.261161 7.566785
111 1 9.8092 3.6e-05 8.827909
112 1 9.8092 3.6e-05 6.30566
113 1 10.701 0.0 7.56682
114 1 11.5928 1.261161 7.566785
115 1 13.3762 3.6e-05 8.827909
116 1 13.3762 3.6e-05 6.30566
117 1 14.268 0.0 7.56682
118 1 15.1598 1.261161 7.566785
119 1 16.9432 3.6e-05 8.827909
120 1 16.9432 3.6e-05 6.30566
121 1 17.835 0.0 7.56682
122 1 18.7268 1.261161 7.566785
123 1 20.5103 3.6e-05 8.827909
124 1 20.5103 3.6e-05 6.30566
125 1 21.402 0.0 7.56682
126 1 22.2938 1.261161 7.566785
127 1 24.0773 3.6e-05 8.827909
128 1 24.0773 3.6e-05 6.30566
129 1 24.969 0.0 7.56682
130 1 25.8608 1.261161 7.566785
131 1 27.6443 3.6e-05 8.827909
132 1 27.6443 3.6e-05 6.30566
133 1 28.536 0.0 7.56682
134 1 29.4278 1.261161 7.566785
135 1 31.2113 3.6e-05 8.827909
136 1 31.2113 3.6e-05 6.30566
137 1 32.103 0.0 7.56682
138 1 32.9948 1.261161 7.566785
139 1 34.7783 3.6e-05 8.827909
140 1 34.7783 3.6e-05 6.30566
141 1 0.0 0.0 5.04457
142 1 0.0 2.52225 5.04457
143 1 1.7835 1.261125 6.305695
144 1 1.7835 1.261125 3.783445
145 1 0.8918 1.261161 5.044535
146 1 0.8918 3.783411 5.044535
147 1 2.6752 2.522286 6.30566
148 1 2.6752 2.522286 3.78341
149 1 3.567 0.0 5.04457
150 1 3.567 2.52225 5.04457
151 1 5.3505 1.261125 6.305695
152 1 5.3505 1.261125 3.783445
153 1 4.4588 1.261161 5.044535
154 1 4.4588 3.783411 5.044535
155 1 6.2422 2.522286 6.30566
156 1 6.2422 2.522286 3.78341
157 1 7.134 0.0 5.04457
158 1 7.134 2.52225 5.04457
159 1 8.9175 1.261125 6.305695
160 1 8.9175 1.261125 3.783445
161 1 8.0258 1.261161 5.044535
162 1 8.0258 3.783411 5.044535
163 1 9.8092 2.522286 6.30566
164 1 9.8092 2.522286 3.78341
165 1 10.701 0.0 5.04457
166 1 10.701 2.52225 5.04457
167 1 12.4845 1.261125 6.305695
168 1 12.4845 1.261125 3.783445
169 1 11.5928 1.261161 5.044535
170 1 11.5928 3.783411 5.044535
171 1 13.3762 2.522286 6.30566
172 1 13.3762 2.522286 3.78341
173 1 14.268 0.0 5.04457
174 1 14.268 2.52225 5.04457
175 1 16.0515 1.261125 6.305695
176 1 16.0515 1.261125 3.783445
177 1 15.1598 1.261161 5.044535
178 1 15.1598 3.783411 5.044535
179 1 16.9432 2.522286 6.30566
180 1 16.9432 2.522286 3.78341
181 1 17.835 0.0 5.04457
182 1 17.835 2.52225 5.04457
183 1 19.6185 1.261125 6.305695
184 1 19.6185 1.261125 3.783445
185 1 18.7268 1.261161 5.044535
186 1 18.7268 3.783411 5.044535
187 1 20.5103 2.522286 6.30566
188 1 20.5103 2.522286 3.78341
189 1 21.402 0.0 5.04457
190 1 21.402 2.52225 5.04457
191 1 23.1855 1.261125 6.305695
192 1 23.1855 1.261125 3.783445
193 1 22.2938 1.261161 5.044535
194 1 22.2938 3.783411 5.044535
195 1 24.0773 2.522286 6.30566
196 1 24.0773 2.522286 3.78341
197 1 24.969 0.0 5.04457
198 1 24.969 2.52225 5.04457
199 1 26.7525 1.261125 6.305695
200 1 26.7525 1.261125 3.783445
201 1 25.8608 1.261161 5.044535
202 1 25.8608 3.783411 5.044535
203 1 27.6443 2.522286 6.30566
204 1 27.6443 2.522286 3.78341
205 1 28.536 0.0 5.04457
206 1 28.536 2.52225 5.04457
207 1 30.3195 1.261125 6.305695
208 1 30.3195 1.261125 3.783445
209 1 29.4278 1.261161 5.044535
210 1 29.4278 3.783411 5.044535
211 1 31.2113 2.522286 6.30566
212 1 31.2113 2.522286 3.78341
213 1 32.103 0.0 5.04457
214 1 32.103 2.52225 5.04457
215 1 33.8865 1.261125 6.305695
216 1 33.8865 1.261125 3.783445
217 1 32.9948 1.261161 5.044535
218 1 32.9948 3.783411 5.044535
219 1 34.7783 2.522286 6.30566
220 1 34.7783 2.522286 3.78341
221 1 0.0 2.52225 2.52232
222 1 0.0 5.0445 2.52232
223 1 1.7835 3.783375 3.783445
224 1 1.7835 3.783375 1.261195
225 1 0.8918 3.783411 2.522285
226 1 0.8918 6.305661 2.522285
227 1 2.6752 5.044536 3.78341
228 1 2.6752 5.044536 1.26116
229 1 3.567 2.52225 2.52232
230 1 3.567 5.0445 2.52232
231 1 5.3505 3.783375 3.783445
232 1 5.3505 3.783375 1.261195
233 1 4.4588 3.783411 2.522285
234 1 4.4588 6.305661 2.522285
235 1 6.2422 5.044536 3.78341
236 1 6.2422 5.044536 1.26116
237 1 7.134 2.52225 2.52232
238 1 7.134 5.0445 2.52232
239 1 8.9175 3.783375 3.783445
240 1 8.9175 3.783375 1.261195
241 1 8.0258 3.783411 2.522285
242 1 8.0258 6.305661 2.522285
243 1 9.8092 5.044536 3.78341
244 1 9.8092 5.044536 1.26116
245 1 10.701 2.52225 2.52232
246 1 10.701 5.0445 2.52232
247 1 12.4845 3.783375 3.783445
248 1 12.4845 3.783375 1.261195
249 1 11.5928 3.783411 2.522285
250 1 11.5928 6.305661 2.522285
251 1 13.3762 5.044536 3.78341
252 1 13.3762 5.044536 1.26116
253 1 14.268 2.52225 2.52232
254 1 14.268 5.0445 2.52232
255 1 16.0515 3.783375 3.783445
256 1 16.0515 3.783375 1.261195
257 1 15.1598 3.783411 2.522285
258 1 15.1598 6.305661 2.522285
259 1 16.9432 5.044536 3.78341
260 1 16.9432 5.044536 1.26116
261 1 17.835 2.52225 2.52232
262 1 17.835 5.0445 2.52232
263 1 19.6185 3.783375 3.783445
264 1 19.6185 3.783375 1.261195
265 1 18.7268 3.783411 2.522285
266 1 18.7268 6.305661 2.522285
267 1 20.5103 5.044536 3.78341
268 1 20.5103 5.044536 1.26116
269 1 21.402 2.52225 2.52232
270 1 21.402 5.0445 2.52232
271 1 23.1855 3.783375 3.783445
272 1 23.1855 3.783375 1.261195
273 1 22.2938 3.783411 2.522285
274 1 22.2938 6.305661 2.522285
275 1 24.0773 5.044536 3.78341
276 1 24.0773 5.044536 1.26116
277 1 24.969 2.52225 2.52232
278 1 24.969 5.0445 2.52232
279 1 26.7525 3.783375 3.783445
280 1 26.7525 3.783375 1.261195
281 1 25.8608 3.783411 2.522285
282 1 25.8608 6.305661 2.522285
283 1 27.6443 5.044536 3.78341
284 1 27.6443 5.044536 1.26116
285 1 28.536 2.52225 2.52232
286 1 28.536 5.0445 2.52232
287 1 30.3195 3.783375 3.783445
288 1 30.3195 3.783375 1.261195
289 1 29.4278 3.783411 2.522285
290 1 29.4278 6.305661 2.522285
291 1 31.2113 5.044536 3.78341
292 1 31.2113 5.044536 1.26116
293 1 32.103 2.52225 2.52232
294 1 32.103 5.0445 2.52232
295 1 33.8865 3.783375 3.783445
296 1 33.8865 3.783375 1.261195
297 1 32.9948 3.783411 2.522285
298 1 32.9948 6.305661 2.522285
299 1 34.7783 5.044536 3.78341
300 1 34.7783 5.044536 1.26116
301 1 0.0 5.0445 7e-05
302 1 0.0 7.56675 7e-05
303 1 1.7835 6.305625 1.261195
304 1 0.8918 6.305661 3.5e-05
305 1 0.8918 8.827911 3.5e-05
306 1 2.6752 7.566786 1.26116
307 1 3.567 5.0445 7e-05
308 1 3.567 7.56675 7e-05
309 1 5.3505 6.305625 1.261195
310 1 4.4588 6.305661 3.5e-05
311 1 4.4588 8.827911 3.5e-05
312 1 6.2422 7.566786 1.26116
313 1 7.134 5.0445 7e-05
314 1 7.134 7.56675 7e-05
315 1 8.9175 6.305625 1.261195
316 1 8.0258 6.305661 3.5e-05
317 1 8.0258 8.827911 3.5e-05
318 1 9.8092 7.566786 1.26116
319 1 10.701 5.0445 7e-05
320 1 10.701 7.56675 7e-05
321 1 12.4845 6.305625 1.261195
322 1 11.5928 6.305661 3.5e-05
323 1 11.5928 8.827911 3.5e-05
324 1 13.3762 7.566786 1.26116
325 1 14.268 5.0445 7e-05
326 1 14.268 7.56675 7e-05
327 1 16.0515 6.305625 1.261195
328 1 15.1598 6.305661 3.5e-05
329 1 15.1598 8.827911 3.5e-05
330 1 16.9432 7.566786 1.26116
331 1 17.835 5.0445 7e-05
332 1 17.835 7.56675 7e-05
333 1 19.6185 6.305625 1.261195
334 1 18.7268 6.305661 3.5e-05
335 1 18.7268 8.827911 3.5e-05
336 1 20.5103 7.566786 1.26116
337 1 21.402 5.0445 7e-05
338 1 21.402 7.56675 7e-05
339 1 23.1855 6.305625 1.261195
340 1 22.2938 6.305661 3.5e-05
341 1 22.2938 8.827911 3.5e-05
342 1 24.0773 7.566786 1.26116
343 1 24.969 5.0445 7e-05
344 1 24.969 7.56675 7e-05
345 1 26.7525 6.305625 1.261195
346 1 25.8608 6.305661 3.5e-05
347 1 25.8608 8.827911 3.5e-05
348 1 27.6443 7.566786 1.26116
349 1 28.536 5.0445 7e-05
350 1 28.536 7.56675 7e-05
351 1 30.3195 6.305625 1.261195
352 1 29.4278 6.305661 3.5e-05
353 1 29.4278 8.827911 3.5e-05
354 1 31.2113 7.566786 1.26116
355 1 32.103 5.0445 7e-05
356 1 32.103 7.56675 7e-05
357 1 33.8865 6.305625 1.261195
358 1 32.9948 6.305661 3.5e-05
359 1 32.9948 8.827911 3.5e-05
360 1 34.7783 7.566786 1.26116
361 1 0.0 0.0 12.61132
362 1 0.8918 1.261125 12.61139
363 1 2.6752 7.1e-05 13.872445
364 1 2.6752 0.0 11.350265
365 1 3.567 0.0 12.61132
366 1 4.4588 1.261125 12.61139
367 1 6.2422 7.1e-05 13.872445
368 1 6.2422 0.0 11.350265
369 1 7.134 0.0 12.61132
370 1 8.0258 1.261125 12.61139
371 1 9.8092 7.1e-05 13.872445
372 1 9.8092 0.0 11.350265
373 1 10.701 0.0 12.61132
374 1 11.5928 1.261125 12.61139
375 1 13.3762 7.1e-05 13.872445
376 1 13.3762 0.0 11.350265
377 1 14.268 0.0 12.61132
378 1 15.1598 1.261125 12.61139
379 1 16.9432 7.1e-05 13.872445
380 1 16.9432 0.0 11.350265
381 1 17.835 0.0 12.61132
382 1 18.7268 1.261125 12.61139
383 1 20.5103 7.1e-05 13.872445
384 1 20.5103 0.0 11.350265
385 1 21.402 0.0 12.61132
386 1 22.2938 1.261125 12.61139
387 1 24.0773 7.1e-05 13.872445
388 1 24.0773 0.0 11.350265
389 1 24.969 0.0 12.61132
390 1 25.8608 1.261125 12.61139
391 1 27.6443 7.1e-05 13.872445
392 1 27.6443 0.0 11.350265
393 1 28.536 0.0 12.61132
394 1 29.4278 1.261125 12.61139
395 1 31.2113 7.1e-05 13.872445
396 1 31.2113 0.0 11.350265
397 1 32.103 0.0 12.61132
398 1 32.9948 1.261125 12.61139
399 1 34.7783 7.1e-05 13.872445
400 1 34.7783 0.0 11.350265
401 1 0.0 0.0 10.08907
402 1 0.0 2.52225 10.08907
403 1 1.7835 1.261125 11.350195
404 1 1.7835 1.261125 8.827945
405 1 0.8918 1.261196 10.08907
406 1 0.8918 3.783445 10.08907
407 1 2.6752 2.52232 11.350195
408 1 2.6752 2.52232 8.827945
409 1 3.567 0.0 10.08907
410 1 3.567 2.52225 10.08907
411 1 5.3505 1.261125 11.350195
412 1 5.3505 1.261125 8.827945
413 1 4.4588 1.261196 10.08907
414 1 4.4588 3.783445 10.08907
415 1 6.2422 2.52232 11.350195
416 1 6.2422 2.52232 8.827945
417 1 7.134 0.0 10.08907
418 1 7.134 2.52225 10.08907
419 1 8.9175 1.261125 11.350195
420 1 8.9175 1.261125 8.827945
421 1 8.0258 1.261196 10.08907
422 1 8.0258 3.783445 10.08907
423 1 9.8092 2.52232 11.350195
424 1 9.8092 2.52232 8.827945
425 1 10.701 0.0 10.08907
426 1 10.701 2.52225 10.08907
427 1 12.4845 1.261125 11.350195
428 1 12.4845 1.261125 8.827945
429 1 11.5928 1.261196 10.08907
430 1 11.5928 3.783445 10.08907
431 1 13.3762 2.52232 11.350195
432 1 13.3762 2.52232 8.827945
433 1 14.268 0.0 10.08907
434 1 14.268 2.52225 10.08907
435 1 16.0515 1.261125 11.350195
436 1 16.0515 1.261125 8.827945
437 1 15.1598 1.261196 10.08907
438 1 15.1598 3.783445 10.08907
439 1 16.9432 2.52232 11.350195
440 1 16.9432 2.52232 8.827945
441 1 17.835 0.0 10.08907
442 1 17.835 2.52225 10.08907
443 1 19.6185 1.261125 11.350195
444 1 19.6185 1.261125 8.827945
445 1 18.7268 1.261196 10.08907
446 1 18.7268 3.783445 10.08907
447 1 20.5103 2.52232 11.350195
448 1 20.5103 2.52232 8.827945
449 1 21.402 0.0 10.08907
450 1 21.402 2.52225 10.08907
451 1 23.1855 1.261125 11.350195
452 1 23.1855 1.261125 8.827945
453 1 22.2938 1.261196 10.08907
454 1 22.2938 3.783445 10.08907
455 1 24.0773 2.52232 11.350195
456 1 24.0773 2.52232 8.827945
457 1 24.969 0.0 10.08907
458 1 24.969 2.52225 10.08907
459 1 26.7525 1.261125 11.350195
460 1 26.7525 1.261125 8.827945
461 1 25.8608 1.261196 10.08907
462 1 25.8608 3.783445 10.08907
463 1 27.6443 2.52232 11.350195
464 1 27.6443 2.52232 8.827945
465 1 28.536 0.0 10.08907
466 1 28.536 2.52225 10.08907
467 1 30.3195 1.261125 11.350195
468 1 30.3195 1.261125 8.827945
469 1 29.4278 1.261196 10.08907
470 1 29.4278 3.783445 10.08907
471 1 31.2113 2.52232 11.350195
472 1 31.2113 2.52232 8.827945
473 1 32.103 0.0 10.08907
474 1 32.103 2.52225 10.08907
475 1 33.8865 1.261125 11.350195
476 1 33.8865 1.261125 8.827945
477 1 32.9948 1.261196 10.08907
478 1 32.9948 3.783445 10.08907
479 1 34.7783 2.52232 11.350195
480 1 34.7783 2.52232 8.827945
481 1 0.0 2.52225 7.56682
482 1 0.0 5.0445 7.56682
483 1 1.7835 3.783375 8.827945
484 1 1.7835 3.783375 6.305695
485 1 0.8918 3.783445 7.56682
486 1 0.8918 6.305695 7.56682
487 1 2.6752 5.04457 8.827945
488 1 2.6752 5.04457 6.305695
489 1 3.567 2.52225 7.56682
490 1 3.567 5.0445 7.56682
491 1 5.3505 3.783375 8.827945
492 1 5.3505 3.783375 6.305695
493 1 4.4588 3.783445 7.56682
494 1 4.4588 6.305695 7.56682
495 1 6.2422 5.04457 8.827945
496 1 6.2422 5.04457 6.305695
497 1 7.134 2.52225 7.56682
498 1 7.134 5.0445 7.56682
499 1 8.9175 3.783375 8.827945
500 1 8.9175 3.783375 6.305695
501 1 8.0258 3.783445 7.56682
502 1 8.0258 6.305695 7.56682
503 1 9.8092 5.04457 8.827945
504 1 9.8092 5.04457 6.305695
505 1 10.701 2.52225 7.56682
506 1 10.701 5.0445 7.56682
507 1 12.4845 3.783375 8.827945
508 1 12.4845 3.783375 6.305695
509 1 11.5928 3.783445 7.56682
510 1 11.5928 6.305695 7.56682
511 1 13.3762 5.04457 8.827945
512 1 13.3762 5.04457 6.305695
513 1 14.268 2.52225 7.56682
514 1 14.268 5.0445 7.56682
515 1 16.0515 3.783375 8.827945
516 1 16.0515 3.783375 6.305695
517 1 15.1598 3.783445 7.56682
518 1 15.1598 6.305695 7.56682
519 1 16.9432 5.04457 8.827945
520 1 16.9432 5.04457 6.305695
521 1 17.835 2.52225 7.56682
522 1 17.835 5.0445 7.56682
523 1 19.6185 3.783375 8.827945
524 1 19.6185 3.783375 6.305695
525 1 18.7268 3.783445 7.56682
526 1 18.7268 6.305695 7.56682
527 1 20.5103 5.04457 8.827945
528 1 20.5103 5.04457 6.305695
529 1 21.402 2.52225 7.56682
530 1 21.402 5.0445 7.56682
531 1 23.1855 3.783375 8.827945
532 1 23.1855 3.783375 6.305695
533 1 22.2938 3.783445 7.56682
534 1 22.2938 6.305695 7.56682
535 1 24.0773 5.04457 8.827945
536 1 24.0773 5.04457 6.305695
537 1 24.969 2.52225 7.56682
538 1 24.969 5.0445 7.56682
539 1 26.7525 3.783375 8.827945
540 1 26.7525 3.783375 6.305695
541 1 25.8608 3.783445 7.56682
542 1 25.8608 6.305695 7.56682
543 1 27.6443 5.04457 8.827945
544 1 27.6443 5.04457 6.305695
545 1 28.536 2.52225 7.56682
546 1 28.536 5.0445 7.56682
547 1 30.3195 3.783375 8.827945
548 1 30.3195 3.783375 6.305695
549 1 29.4278 3.783445 7.56682
550 1 29.4278 6.305695 7.56682
551 1 31.2113 5.04457 8.827945
552 1 31.2113 5.04457 6.305695
553 1 32.103 2.52225 7.56682
554 1 32.103 5.0445 7.56682
555 1 33.8865 3.783375 8.827945
556 1 33.8865 3.783375 6.305695
557 1 32.9948 3.783445 7.56682
558 1 32.9948 6.305695 7.56682
559 1 34.7783 5.04457 8.827945
560 1 34.7783 5.04457 6.305695
561 1 0.0 5.0445 5.04457
562 1 0.0 7.56675 5.04457
563 1 1.7835 6.305625 6.305695
564 1 1.7835 6.305625 3.783445
565 1 0.8918 6.305695 5.04457
566 1 0.8918 8.827945 5.04457
567 1 2.6752 7.56682 6.305695
568 1 2.6752 7.56682 3.783445
569 1 3.567 5.0445 5.04457
570 1 3.567 7.56675 5.04457
571 1 5.3505 6.305625 6.305695
572 1 5.3505 6.305625 3.783445
573 1 4.4588 6.305695 5.04457
574 1 4.4588 8.827945 5.04457
575 1 6.2422 7.56682 6.305695
576 1 6.2422 7.56682 3.783445
577 1 7.134 5.0445 5.04457
578 1 7.134 7.56675 5.04457
579 1 8.9175 6.305625 6.305695
580 1 8.9175 6.305625 3.783445
581 1 8.0258 6.305695 5.04457
582 1 8.0258 8.827945 5.04457
583 1 9.8092 7.56682 6.305695
584 1 9.8092 7.56682 3.783445
585 1 10.701 5.0445 5.04457
586 1 10.701 7.56675 5.04457
587 1 12.4845 6.305625 6.305695
588 1 12.4845 6.305625 3.783445
589 1 11.5928 6.305695 5.04457
590 1 11.5928 8.827945 5.04457
591 1 13.3762 7.56682 6.305695
592 1 13.3762 7.56682 3.783445
593 1 14.268 5.0445 5.04457
594 1 14.268 7.56675 5.04457
595 1 16.0515 6.305625 6.305695
596 1 16.0515 6.305625 3.783445
597 1 15.1598 6.305695 5.04457
598 1 15.1598 8.827945 5.04457
599 1 16.9432 7.56682 6.305695
600 1 16.9432 7.56682 3.783445
601 1 17.835 5.0445 5.04457
602 1 17.835 7.56675 5.04457
603 1 19.6185 6.305625 6.305695
604 1 19.6185 6.305625 3.783445
605 1 18.7268 6.305695 5.04457
606 1 18.7268 8.827945 5.04457
607 1 20.5103 7.56682 6.305695
608 1 20.5103 7.56682 3.783445
609 1 21.402 5.0445 5.04457
610 1 21.402 7.56675 5.04457
611 1 23.1855 6.305625 6.305695
612 1 23.1855 6.305625 3.783445
613 1 22.2938 6.305695 5.04457
614 1 22.2938 8.827945 5.04457
615 1 24.0773 7.56682 6.305695
616 1 24.0773 7.56682 3.783445
617 1 24.969 5.0445 5.04457
618 1 24.969 7.56675 5.04457
619 1 26.7525 6.305625 6.305695
620 1 26.7525 6.305625 3.783445
621 1 25.8608 6.305695 5.04457
622 1 25.8608 8.827945 5.04457
623 1 27.6443 7.56682 6.305695
624 1 27.6443 7.56682 3.783445
625 1 28.536 5.0445 5.04457
626 1 28.536 7.56675 5.04457
627 1 30.3195 6.305625 6.305695
628 1 30.3195 6.305625 3.783445
629 1 29.4278 6.305695 5.04457
630 1 29.4278 8.827945 5.04457
631 1 31.2113 7.56682 6.305695
632 1 31.2113 7.56682 3.783445
633 1 32.103 5.0445 5.04457
634 1 32.103 7.56675 5.04457
635 1 33.8865 6.305625 6.305695
636 1 33.8865 6.305625 3.783445
637 1 32.9948 6.305695 5.04457
638 1 32.9948 8.827945 5.04457
639 1 34.7783 7.56682 6.305695
640 1 34.7783 7.56682 3.783445
641 1 0.0 7.56675 2.52232
642 1 0.0 10.089 2.52232
643 1 1.7835 8.827875 3.783445
644 1 1.7835 8.827875 1.261195
645 1 0.8918 8.827945 2.52232
646 1 0.8918 11.350195 2.52232
647 1 2.6752 10.08907 3.783445
648 1 2.6752 10.08907 1.261195
649 1 3.567 7.56675 2.52232
650 1 3.567 10.089 2.52232
651 1 5.3505 8.827875 3.783445
652 1 5.3505 8.827875 1.261195
653 1 4.4588 8.827945 2.52232
654 1 4.4588 11.350195 2.52232
655 1 6.2422 10.08907 3.783445
656 1 6.2422 10.08907 1.261195
657 1 7.134 7.56675 2.52232
658 1 7.134 10.089 2.52232
659 1 8.9175 8.827875 3.783445
660 1 8.9175 8.827875 1.261195
661 1 8.0258 8.827945 2.52232
662 1 8.0258 11.350195 2.52232
663 1 9.8092 10.08907 3.783445
664 1 9.8092 10.08907 1.261195
665 1 10.701 7.56675 2.52232
666 1 10.701 10.089 2.52232
667 1 12.4845 8.827875 3.783445
668 1 12.4845 8.827875 1.261195
669 1 11.5928 8.827945 2.52232
670 1 11.5928 11.350195 2.52232
671 1 13.3762 10.08907 3.783445
672 1 13.3762 10.08907 1.261195
673 1 14.268 7.56675 2.52232
674 1 14.268 10.089 2.52232
675 1 16.0515 8.827875 3.783445
676 1 16.0515 8.827875 1.261195
677 1 15.1598 8.827945 2.52232
678 1 15.1598 11.350195 2.52232
679 1 16.9432 10.08907 3.783445
680 1 16.9432 10.08907 1.261195
681 1 17.835 7.56675 2.52232
682 1 17.835 10.089 2.52232
683 1 19.6185 8.827875 3.783445
684 1 19.6185 8.827875 1.261195
685 1 18.7268 8.827945 2.52232
686 1 18.7268 11.350195 2.52232
687 1 20.5103 10.08907 3.783445
688 1 20.5103 10.08907 1.261195
689 1 21.402 7.56675 2.52232
690 1 21.402 10.089 2.52232
691 1 23.1855 8.827875 3.783445
692 1 23.1855 8.827875 1.261195
693 1 22.2938 8.827945 2.52232
694 1 22.2938 11.350195 2.52232
695 1 24.0773 10.08907 3.783445
696 1 24.0773 10.08907 1.261195
697 1 24.969 7.56675 2.52232
698 1 24.969 10.089 2.52232
699 1 26.7525 8.827875 3.783445
700 1 26.7525 8.827875 1.261195
701 1 25.8608 8.827945 2.52232
702 1 25.8608 11.350195 2.52232
703 1 27.6443 10.08907 3.783445
704 1 27.6443 10.08907 1.261195
705 1 28.536 7.56675 2.52232
706 1 28.536 10.089 2.52232
707 1 30.3195 8.827875 3.783445
708 1 30.3195 8.827875 1.261195
709 1 29.4278 8.827945 2.52232
710 1 29.4278 11.350195 2.52232
711 1 31.2113 10.08907 3.783445
712 1 31.2113 10.08907 1.261195
713 1 32.103 7.56675 2.52232
714 1 32.103 10.089 2.52232
715 1 33.8865 8.827875 3.783445
716 1 33.8865 8.827875 1.261195
717 1 32.9948 8.827945 2.52232
718 1 32.9948 11.350195 2.52232
719 1 34.7783 10.08907 3.783445
720 1 34.7783 10.08907 1.261195
721 1 0.0 10.089 7e-05
722 1 0.0 12.61125 7e-05
723 1 1.7835 11.350125 1.261195
724 1 0.8918 11.350195 7e-05
725 1 0.8918 13.872445 7e-05
726 1 2.6752 12.61132 1.261195
727 1 3.567 10.089 7e-05
728 1 3.567 12.61125 7e-05
729 1 5.3505 11.350125 1.261195
730 1 4.4588 11.350195 7e-05
731 1 4.4588 13.872445 7e-05
732 1 6.2422 12.61132 1.261195
733 1 7.134 10.089 7e-05
734 1 7.134 12.61125 7e-05
735 1 8.9175 11.350125 1.261195
736 1 8.0258 11.350195 7e-05
737 1 8.0258 13.872445 7e-05
738 1 9.8092 12.61132 1.261195
739 1 10.701 10.089 7e-05
740 1 10.701 12.61125 7e-05
741 1 12.4845 11.350125 1.261195
742 1 11.5928 11.350195 7e-05
743 1 11.5928 13.872445 7e-05
744 1 13.3762 12.61132 1.261195
745 1 14.268 10.089 7e-05
746 1 14.268 12.61125 7e-05
747 1 16.0515 11.350125 1.261195
748 1 15.1598 11.350195 7e-05
749 1 15.1598 13.872445 7e-05
750 1 16.9432 12.61132 1.261195
751 1 17.835 10.089 7e-05
752 1 17.835 12.61125 7e-05
753 1 19.6185 11.350125 1.261195
754 1 18.7268 11.350195 7e-05
755 1 18.7268 13.872445 7e-05
756 1 20.5103 12.61132 1.261195
757 1 21.402 10.089 7e-05
758 1 21.402 12.61125 7e-05
759 1 23.1855 11.350125 1.261195
760 1 22.2938 11.350195 7e-05
761 1 22.2938 13.872445 7e-05
762 1 24.0773 12.61132 1.261195
763 1 24.969 10.089 7e-05
764 1 24.969 12.61125 7e-05
765 1 26.7525 11.350125 1.261195
766 1 25.8608 11.350195 7e-05
767 1 25.8608 13.872445 7e-05
768 1 27.6443 12.61132 1.261195
769 1 28.536 10.089 7e-05
770 1 28.536 12.61125 7e-05
771 1 30.3195 11.350125 1.261195
772 1 29.4278 11.350195 7e-05
773 1 29.4278 13.872445 7e-05
774 1 31.2113 12.61132 1.261195
775 1 32.103 10.089 7e-05
776 1 32.103 12.61125 7e-05
777 1 33.8865 11.350125 1.261195
778 1 32.9948 11.350195 7e-05
779 1 32.9948 13.872445 7e-05
780 1 34.7783 12.61132 1.261195
781 1 0.0 0.0 17.655819
782 1 0.8918 1.261055 17.655819
783 1 2.6752 0.0 18.916874
784 1 2.6752 0.0 16.394765
785 1 3.567 0.0 17.655819
786 1 4.4588 1.261055 17.655819
787 1 6.2422 0.0 18.916874
788 1 6.2422 0.0 16.394765
789 1 7.134 0.0 17.655819
790 1 8.0258 1.261055 17.655819
791 1 9.8092 0.0 18.916874
792 1 9.8092 0.0 16.394765
793 1 10.701 0.0 17.655819
794 1 11.5928 1.261055 17.655819
795 1 13.3762 0.0 18.916874
796 1 13.3762 0.0 16.394765
797 1 14.268 0.0 17.655819
798 1 15.1598 1.261055 17.655819
799 1 16.9432 0.0 18.916874
800 1 16.9432 0.0 16.394765
801 1 17.835 0.0 17.655819
802 1 18.7268 1.261055 17.655819
803 1 20.5103 0.0 18.916874
804 1 20.5103 0.0 16.394765
805 1 21.402 0.0 17.655819
806 1 22.2938 1.261055 17.655819
807 1 24.0773 0.0 18.916874
808 1 24.0773 0.0 16.394765
809 1 24.969 0.0 17.655819
810 1 25.8608 1.261055 17.655819
811 1 27.6443 0.0 18.916874
812 1 27.6443 0.0 16.394765
813 1 28.536 0.0 17.655819
814 1 29.4278 1.261055 17.655819
815 1 31.2113 0.0 18.916874
816 1 31.2113 0.0 16.394765
817 1 32.103 0.0 17.655819
818 1 32.9948 1.261055 17.655819
819 1 34.7783 0.0 18.916874
820 1 34.7783 0.0 16.394765
821 1 0.0 0.0 15.13357
822 1 0.0 2.52225 15.13357
823 1 1.7835 1.261125 16.394695
824 1 1.7835 1.261125 13.872445
825 1 0.8918 1.261196 15.13357
826 1 0.8918 3.783305 15.13357
827 1 2.6752 2.52225 16.394624
828 1 2.6752 2.52225 13.872515
829 1 3.567 0.0 15.13357
830 1 3.567 2.52225 15.13357
831 1 5.3505 1.261125 16.394695
832 1 5.3505 1.261125 13.872445
833 1 4.4588 1.261196 15.13357
834 1 4.4588 3.783305 15.13357
835 1 6.2422 2.52225 16.394624
836 1 6.2422 2.52225 13.872515
837 1 7.134 0.0 15.13357
838 1 7.134 2.52225 15.13357
839 1 8.9175 1.261125 16.394695
840 1 8.9175 1.261125 13.872445
841 1 8.0258 1.261196 15.13357
842 1 8.0258 3.783305 15.13357
843 1 9.8092 2.52225 16.394624
844 1 9.8092 2.52225 13.872515
845 1 10.701 0.0 15.13357
846 1 10.701 2.52225 15.13357
847 1 12.4845 1.261125 16.394695
848 1 12.4845 1.261125 13.872445
849 1 11.5928 1.261196 15.13357
850 1 11.5928 3.783305 15.13357
851 1 13.3762 2.52225 16.394624
852 1 13.3762 2.52225 13.872515
853 1 14.268 0.0 15.13357
854 1 14.268 2.52225 15.13357
855 1 16.0515 1.261125 16.394695
856 1 16.0515 1.261125 13.872445
857 1 15.1598 1.261196 15.13357
858 1 15.1598 3.783305 15.13357
859 1 16.9432 2.52225 16.394624
860 1 16.9432 2.52225 13.872515
861 1 17.835 0.0 15.13357
862 1 17.835 2.52225 15.13357
863 1 19.6185 1.261125 16.394695
864 1 19.6185 1.261125 13.872445
865 1 18.7268 1.261196 15.13357
866 1 18.7268 3.783305 15.13357
867 1 20.5103 2.52225 16.394624
868 1 20.5103 2.52225 13.872515
869 1 21.402 0.0 15.13357
870 1 21.402 2.52225 15.13357
871 1 23.1855 1.261125 16.394695
872 1 23.1855 1.261125 13.872445
873 1 22.2938 1.261196 15.13357
874 1 22.2938 3.783305 15.13357
875 1 24.0773 2.52225 16.394624
876 1 24.0773 2.52225 13.872515
877 1 24.969 0.0 15.13357
878 1 24.969 2.52225 15.13357
879 1 26.7525 1.261125 16.394695
880 1 26.7525 1.261125 13.872445
881 1 25.8608 1.261196 15.13357
882 1 25.8608 3.783305 15.13357
883 1 27.6443 2.52225 16.394624
884 1 27.6443 2.52225 13.872515
885 1 28.536 0.0 15.13357
886 1 28.536 2.52225 15.13357
887 1 30.3195 1.261125 16.394695
888 1 30.3195 1.261125 13.872445
889 1 29.4278 1.261196 15.13357
890 1 29.4278 3.783305 15.13357
891 1 31.2113 2.52225 16.394624
892 1 31.2113 2.52225 13.872515
893 1 32.103 0.0 15.13357
894 1 32.103 2.52225 15.13357
895 1 33.8865 1.261125 16.394695
896 1 33.8865 1.261125 13.872445
897 1 32.9948 1.261196 15.13357
898 1 32.9948 3.783305 15.13357
899 1 34.7783 2.52225 16.394624
900 1 34.7783 2.52225 13.872515
901 1 0.0 2.52225 12.61132
902 1 0.0 5.0445 12.61132
903 1 1.7835 3.783375 13.872445
904 1 1.7835 3.783375 11.350195
905 1 0.8918 3.783445 12.61132
906 1 0.8918 6.305625 12.611249
907 1 2.6752 5.0445 13.872374
908 1 2.6752 5.04457 11.350195
909 1 3.567 2.52225 12.61132
910 1 3.567 5.0445 12.61132
911 1 5.3505 3.783375 13.872445
912 1 5.3505 3.783375 11.350195
913 1 4.4588 3.783445 12.61132
914 1 4.4588 6.305625 12.611249
915 1 6.2422 5.0445 13.872374
916 1 6.2422 5.04457 11.350195
917 1 7.134 2.52225 12.61132
918 1 7.134 5.0445 12.61132
919 1 8.9175 3.783375 13.872445
920 1 8.9175 3.783375 11.350195
921 1 8.0258 3.783445 12.61132
922 1 8.0258 6.305625 12.611249
923 1 9.8092 5.0445 13.872374
924 1 9.8092 5.04457 11.350195
925 1 10.701 2.52225 12.61132
926 1 10.701 5.0445 12.61132
927 1 12.4845 3.783375 13.872445
928 1 12.4845 3.783375 11.350195
929 1 11.5928 3.783445 12.61132
930 1 11.5928 6.305625 12.611249
931 1 13.3762 5.0445 13.872374
932 1 13.3762 5.04457 11.350195
933 1 14.268 2.52225 12.61132
934 1 14.268 5.0445 12.61132
935 1 16.0515 3.783375 13.872445
936 1 16.0515 3.783375 11.350195
937 1 15.1598 3.783445 12.61132
938 1 15.1598 6.305625 12.611249
939 1 16.9432 5.0445 13.872374
940 1 16.9432 5.04457 11.350195
941 1 17.835 2.52225 12.61132
942 1 17.835 5.0445 12.61132
943 1 19.6185 3.783375 13.872445
944 1 19.6185 3.783375 11.350195
945 1 18.7268 3.783445 12.61132
946 1 18.7268 6.305625 12.611249
947 1 20.5103 5.0445 13.872374
948 1 20.5103 5.04457 11.350195
949 1 21.402 2.52225 12.61132
950 1 21.402 5.0445 12.61132
951 1 23.1855 3.783375 13.872445
952 1 23.1855 3.783375 11.350195
953 1 22.2938 3.783445 12.61132
954 1 22.2938 6.305625 12.611249
955 1 24.0773 5.0445 13.872374
956 1 24.0773 5.04457 11.350195
957 1 24.969 2.52225 12.61132
958 1 24.969 5.0445 12.61132
959 1 26.7525 3.783375 13.872445
960 1 26.7525 3.783375 11.350195
961 1 25.8608 3.783445 12.61132
962 1 25.8608 6.305625 12.611249
963 1 27.6443 5.0445 13.872374
964 1 27.6443 5.04457 11.350195
965 1 28.536 2.52225 12.61132
966 1 28.536 5.0445 12.61132
967 1 30.3195 3.783375 13.872445
968 1 30.3195 3.783375 11.350195
969 1 29.4278 3.783445 12.61132
970 1 29.4278 6.305625 12.611249
971 1 31.2113 5.0445 13.872374
972 1 31.2113 5.04457 11.350195
973 1 32.103 2.52225 12.61132
974 1 32.103 5.0445 12.61132
975 1 33.8865 3.783375 13.872445
976 1 33.8865 3.783375 11.350195
977 1 32.9948 3.783445 12.61132
978 1 32.9948 6.305625 12.611249
979 1 34.7783 5.0445 13.872374
980 1 34.7783 5.04457 11.350195
981 1 0.0 5.0445 10.08907
982 1 0.0 7.56675 10.08907
983 1 1.7835 6.305625 11.350195
984 1 1.7835 6.305625 8.827945
985 1 0.8918 6.305695 10.08907
986 1 0.8918 8.827875 10.088999
987 1 2.6752 7.56675 11.350124
988 1 2.6752 7.56682 8.827945
989 1 3.567 5.0445 10.08907
990 1 3.567 7.56675 10.08907
991 1 5.3505 6.305625 11.350195
992 1 5.3505 6.305625 8.827945
993 1 4.4588 6.305695 10.08907
994 1 4.4588 8.827875 10.088999
995 1 6.2422 7.56675 11.350124