LAMMPS data file from restart file: timestep = 1, procs = 1

5104 atoms

2 atom types

#0 27.6443 xlo xhi
#0 26.483764 ylo yhi
#-5 71.34 zlo zhi

-3 30 xlo xhi
-3 30 ylo yhi
-5 71.34 zlo zhi

Masses

1 12.01
2 1.0079

Atoms

1 1 0.755208 27.1344 35.8746
2 1 4.28005 -0.436689 35.5311
3 1 8.02015 -0.437315 35.5303
4 1 11.7668 -0.437333 35.5303
5 1 15.5136 -0.437335 35.5303
6 1 19.2604 -0.437326 35.5303
7 1 23.0057 -0.435972 35.534
8 1 26.7101 27.0982 35.8238
9 1 0.817559 -0.501908 30.1373
10 1 4.24522 27.1521 30.1241
11 1 7.97075 -0.657648 30.1219
12 1 11.7173 -0.657629 30.1218
13 1 15.4641 -0.65763 30.1218
14 1 19.2108 -0.657639 30.1219
15 1 22.9519 -0.658405 30.1252
16 1 26.6315 26.9741 30.1277
17 1 -0.619457 0.949702 32.8404
18 1 1.00568 26.9847 31.5007
19 1 0.989936 27.0662 34.3123
20 1 0.831826 -0.535457 32.8957
21 1 0.355345 2.04309 32.774
22 1 2.1693 0.958169 31.4453
23 1 2.16944 0.956522 34.117
24 1 3.00595 0.930698 32.7717
25 1 4.68949 -0.657806 31.453
26 1 4.68415 27.126 34.1383
27 1 4.23845 -0.658604 32.7873
28 1 4.01628 2.02274 32.7687
29 1 5.90385 0.931171 31.4458
30 1 5.90767 0.930984 34.1146
31 1 6.75209 0.930418 32.7729
32 1 8.43258 -0.6575 31.4495
33 1 8.42762 27.126 34.1349
34 1 7.97413 -0.654081 32.784
35 1 7.76043 2.02218 32.7685
36 1 9.64984 0.930405 31.4459
37 1 9.65439 0.93092 34.1145
38 1 10.4988 0.930453 32.7729
39 1 12.1793 -0.657495 31.4495
40 1 12.1744 27.126 34.1349
41 1 11.7207 -0.654063 32.7839
42 1 11.5072 2.02217 32.7684
43 1 13.3966 0.930402 31.4459
44 1 13.4012 0.93092 34.1145
45 1 14.2456 0.930449 32.7729
46 1 15.9261 -0.657479 31.4495
47 1 15.9212 27.126 34.1349
48 1 15.4675 -0.654064 32.7839
49 1 15.254 2.02217 32.7684
50 1 17.1434 0.930396 31.4459
51 1 17.148 0.930915 34.1145
52 1 17.9924 0.930456 32.7729
53 1 19.6727 -0.65751 31.4496
54 1 19.6678 27.126 34.135
55 1 19.2142 -0.654069 32.784
56 1 19.0007 2.02217 32.7684
57 1 20.8901 0.930351 31.4459
58 1 20.8947 0.930882 34.1145
59 1 21.7384 0.931286 32.7727
60 1 23.404 -0.663923 31.4524
61 1 23.4033 27.1191 34.14
62 1 22.9579 -0.653702 32.7876
63 1 22.7458 2.02336 32.7678
64 1 24.6355 0.93083 31.4445
65 1 24.6204 0.924344 34.0992
66 1 25.4748 0.955692 32.7709
67 1 26.8104 -0.513091 31.507
68 1 26.8133 -0.621223 34.3237
69 1 26.6526 27.0179 32.8814
70 1 26.4687 2.02477 32.7707
71 1 28.259 0.934717 31.4814
72 1 28.242 0.907832 34.2198
73 1 -0.608341 0.871982 35.7013
74 1 -0.469362 3.33212 35.5992
75 1 1.17961 2.02759 34.12
76 1 0.240833 2.06688 35.4566
77 1 0.193837 4.63801 35.4037
78 1 2.1001 3.32686 34.1094
79 1 3.13863 0.771175 35.4377
80 1 3.14393 3.32807 35.352
81 1 4.91935 2.02616 34.1096
82 1 3.92599 2.05601 35.3554
83 1 3.89221 4.63605 35.3512
84 1 5.84289 3.32544 34.1059
85 1 6.88125 0.766495 35.4305
86 1 6.89001 3.32786 35.3517
87 1 8.66581 2.026 34.1096
88 1 7.67141 2.05481 35.3551
89 1 7.6388 4.63598 35.351
90 1 9.58957 3.3254 34.1059
91 1 10.628 0.766522 35.4305
92 1 10.6368 3.32785 35.3517
93 1 12.4126 2.026 34.1096
94 1 11.4182 2.05481 35.3551
95 1 11.3856 4.63598 35.351
96 1 13.3363 3.3254 34.1059
97 1 14.3748 0.76652 35.4305
98 1 14.3836 3.32785 35.3517
99 1 16.1594 2.026 34.1096
100 1 15.165 2.0548 35.3551
101 1 15.1324 4.63598 35.351
102 1 17.0832 3.3254 34.1059
103 1 18.1216 0.766522 35.4305
104 1 18.1303 3.32785 35.3517
105 1 19.9061 2.02601 34.1096
106 1 18.9117 2.0548 35.3551
107 1 18.8791 4.63598 35.351
108 1 20.8299 3.32547 34.1059
109 1 21.8682 0.766784 35.4308
110 1 21.8769 3.32803 35.3519
111 1 23.6441 2.02848 34.1021
112 1 22.658 2.05525 35.3542
113 1 22.6259 4.63601 35.3511
114 1 24.5751 3.32584 34.1054
115 1 25.5079 0.884387 35.4274
116 1 25.6263 3.32633 35.3563
117 1 27.3029 2.0374 34.113
118 1 26.3591 2.0228 35.3674
119 1 26.356 4.63561 35.3553
120 1 28.0709 3.33238 34.1394
121 1 0.822658 -0.522469 24.8174
122 1 4.25791 27.148 24.8221
123 1 7.97057 -0.657696 24.822
124 1 11.717 -0.657667 24.822
125 1 15.4637 -0.657668 24.822
126 1 19.2105 -0.657683 24.822
127 1 22.9488 -0.65898 24.8222
128 1 26.4703 26.9516 24.8177
129 1 -0.58902 0.926756 27.4797
130 1 1.17955 26.945 26.1224
131 1 1.06515 26.96 28.787
132 1 0.833095 -0.510807 27.4025
133 1 0.356934 2.04224 27.4712
134 1 2.17237 0.963403 26.1469
135 1 2.17067 0.960674 28.7961
136 1 3.00768 0.932326 27.4711
137 1 4.69482 -0.65887 26.1477
138 1 4.69375 -0.65867 28.7986
139 1 4.25387 27.1491 27.4737
140 1 4.01323 2.0239 27.4715
141 1 5.90485 0.932318 26.1467
142 1 5.90467 0.932081 28.7961
143 1 6.75404 0.930555 27.4714
144 1 8.43378 -0.657683 26.1467
145 1 8.43369 -0.657662 28.7964
146 1 7.97056 -0.657621 27.4715
147 1 7.75678 2.02297 27.4714
148 1 9.65 0.930592 26.1467
149 1 9.65001 0.930581 28.7961
150 1 10.5006 0.930591 27.4714
151 1 12.1805 -0.657672 26.1467
152 1 12.1804 -0.657655 28.7963
153 1 11.717 -0.657595 27.4714
154 1 11.5035 2.02294 27.4714
155 1 13.3968 0.930586 26.1467
156 1 13.3968 0.930578 28.7961
157 1 14.2474 0.930587 27.4714
158 1 15.9273 -0.657657 26.1467
159 1 15.9272 -0.657639 28.7963
160 1 15.4638 -0.657597 27.4714
161 1 15.2502 2.02294 27.4714
162 1 17.1436 0.930581 26.1467
163 1 17.1436 0.930573 28.7961
164 1 17.9942 0.930597 27.4714
165 1 19.6737 -0.657685 26.1467
166 1 19.6737 -0.657661 28.7964
167 1 19.2105 -0.657609 27.4715
168 1 18.997 2.02295 27.4714
169 1 20.8902 0.930544 26.1467
170 1 20.8902 0.930541 28.7961
171 1 21.7394 0.932244 27.4714
172 1 23.3867 27.1481 26.1471
173 1 23.3928 27.1499 28.7994
174 1 22.9499 -0.658725 27.473
175 1 22.743 2.02333 27.4714
176 1 24.6369 0.932454 26.1467
177 1 24.6363 0.932125 28.7957
178 1 25.4716 0.963348 27.4715
179 1 26.8206 -0.523047 26.1409
180 1 26.8445 -0.514054 28.7251
181 1 26.4543 26.9435 27.4514
182 1 26.462 2.02622 27.4715
183 1 28.2287 0.92957 26.1503
184 1 28.2459 0.943404 28.8063
185 1 -0.607588 0.934535 30.1388
186 1 -0.386146 3.33527 30.1211
187 1 1.18187 2.02611 28.7962
188 1 1.18068 2.02515 31.4463
189 1 0.35557 2.04163 30.1216
190 1 0.35916 4.63819 30.1209
191 1 2.11707 3.32611 28.7961
192 1 2.11657 3.32596 31.4454
193 1 3.00843 0.931602 30.1204
194 1 3.05716 3.32434 30.1208
195 1 4.90129 2.02334 28.7961
196 1 4.9016 2.0232 31.4452
197 1 4.01309 2.02377 30.1209
198 1 3.9875 4.63521 30.1207
199 1 5.85548 3.32429 28.7961
200 1 5.85522 3.32426 31.4452
201 1 6.75402 0.930476 30.1209
202 1 6.80181 3.32423 30.1207
203 1 8.64724 2.02296 28.7961
204 1 8.64762 2.02287 31.4452
205 1 7.75678 2.02295 30.1208
206 1 7.73377 4.63511 30.1207
207 1 9.6021 3.3242 28.7961
208 1 9.60186 3.32418 31.4451
209 1 10.5007 0.930504 30.1209
210 1 10.5486 3.3242 30.1207
211 1 12.394 2.02295 28.7961
212 1 12.3944 2.02286 31.4452
213 1 11.5035 2.02294 30.1208
214 1 11.4805 4.6351 30.1207
215 1 13.3489 3.32419 28.7961
216 1 13.3486 3.32418 31.4451
217 1 14.2474 0.9305 30.1209
218 1 14.2953 3.32419 30.1207
219 1 16.1408 2.02295 28.7961
220 1 16.1412 2.02286 31.4452
221 1 15.2503 2.02293 30.1208
222 1 15.2273 4.6351 30.1207
223 1 17.0957 3.32419 28.7961
224 1 17.0954 3.32418 31.4451
225 1 17.9942 0.93051 30.1209
226 1 18.0421 3.3242 30.1207
227 1 19.8875 2.02297 28.7961
228 1 19.8879 2.02288 31.4452
229 1 18.9971 2.02294 30.1208
230 1 18.9741 4.63511 30.1207
231 1 20.8424 3.32422 28.7961
232 1 20.8422 3.32423 31.4451
233 1 21.7398 0.931724 30.1208
234 1 21.7888 3.32428 30.1207
235 1 23.6311 2.02388 28.7962
236 1 23.6317 2.02356 31.4453
237 1 22.743 2.02331 30.1208
238 1 22.7208 4.63513 30.1207
239 1 24.587 3.32437 28.7961
240 1 24.587 3.32435 31.4452
241 1 25.4743 0.959511 30.1207
242 1 25.5272 3.32606 30.1208
243 1 27.2875 2.0428 28.7964
244 1 27.2902 2.04167 31.4473
245 1 26.463 2.02565 30.1211
246 1 26.4317 4.63642 30.121
247 1 28.0301 3.33545 28.7961
248 1 28.032 3.33544 31.4474
249 1 -0.393337 3.33586 32.7799
250 1 -0.39759 5.95693 32.7801
251 1 1.21213 4.63642 31.4462
252 1 1.19769 4.63644 34.1125
253 1 0.356305 4.63827 32.7698
254 1 0.352148 7.28098 32.7698
255 1 2.12216 5.95689 31.4454
256 1 2.10531 5.95695 34.1089
257 1 3.05476 3.32422 32.7685
258 1 3.04984 5.9568 32.7681
259 1 4.92377 4.63513 31.4451
260 1 4.93494 4.63527 34.1053
261 1 3.98898 4.63522 32.768
262 1 3.98878 7.28094 32.768
263 1 5.85981 5.95675 31.4451
264 1 5.84823 5.95682 34.1054
265 1 6.80034 3.32414 32.7682
266 1 6.7954 5.95675 32.7678
267 1 8.67046 4.63511 31.4451
268 1 8.68166 4.63526 34.1053
269 1 7.73543 4.63514 32.7678
270 1 7.73528 7.28093 32.7678
271 1 9.60657 5.95675 31.4451
272 1 9.595 5.95682 34.1054
273 1 10.5471 3.32412 32.7682
274 1 10.5422 5.95675 32.7678
275 1 12.4172 4.63511 31.4451
276 1 12.4284 4.63526 34.1053
277 1 11.4822 4.63513 32.7678
278 1 11.4821 7.28093 32.7678
279 1 13.3533 5.95675 31.4451
280 1 13.3418 5.95682 34.1054
281 1 14.2939 3.32412 32.7682
282 1 14.289 5.95675 32.7678
283 1 16.164 4.63511 31.4451
284 1 16.1752 4.63526 34.1053
285 1 15.229 4.63513 32.7678
286 1 15.2288 7.28093 32.7678
287 1 17.1002 5.95675 31.4451
288 1 17.0886 5.95682 34.1054
289 1 18.0407 3.32412 32.7682
290 1 18.0358 5.95675 32.7678
291 1 19.9108 4.63511 31.4451
292 1 19.922 4.63526 34.1053
293 1 18.9758 4.63514 32.7678
294 1 18.9756 7.28093 32.7678
295 1 20.8469 5.95675 31.4451
296 1 20.8354 5.95682 34.1054
297 1 21.7872 3.32425 32.768
298 1 21.7825 5.95676 32.7678
299 1 23.6571 4.63521 31.4452
300 1 23.6686 4.63554 34.1055
301 1 22.7224 4.63519 32.7678
302 1 22.7223 7.28093 32.7678
303 1 24.5917 5.9568 31.4452
304 1 24.5809 5.95682 34.1056
305 1 25.5267 3.32587 32.7689
306 1 25.5211 5.95689 32.7689
307 1 27.2866 4.63824 31.4455
308 1 27.3143 4.63825 34.1106
309 1 26.4392 4.63645 32.7706
310 1 26.4399 7.28097 32.7708
311 1 28.0351 5.95696 31.4476
312 1 28.0803 5.95701 34.1414
313 1 -0.47629 5.95703 35.6088
314 1 -0.476373 8.60552 35.6091
315 1 1.19734 7.28097 34.1128
316 1 0.190969 7.28098 35.404
317 1 0.190943 9.93018 35.404
318 1 2.10537 8.60552 34.1089
319 1 3.1452 5.95689 35.3517
320 1 3.14523 8.60551 35.3518
321 1 4.93536 7.28095 34.1054
322 1 3.89251 7.28093 35.3516
323 1 3.89251 9.93018 35.3517
324 1 5.84845 8.60551 34.1054
325 1 6.89139 5.95686 35.3514
326 1 6.89142 8.60551 35.3515
327 1 8.6821 7.28094 34.1054
328 1 7.63913 7.28093 35.3515
329 1 7.63914 9.93018 35.3515
330 1 9.59521 8.60551 34.1054
331 1 10.6382 5.95686 35.3514
332 1 10.6382 8.60551 35.3515
333 1 12.4289 7.28094 34.1054
334 1 11.3859 7.28093 35.3515
335 1 11.3859 9.93018 35.3515
336 1 13.342 8.60551 34.1054
337 1 14.3849 5.95686 35.3514
338 1 14.385 8.60551 35.3515
339 1 16.1757 7.28094 34.1054
340 1 15.1327 7.28093 35.3515
341 1 15.1327 9.93018 35.3515
342 1 17.0888 8.60551 34.1054
343 1 18.1317 5.95686 35.3514
344 1 18.1318 8.60551 35.3515
345 1 19.9225 7.28094 34.1054
346 1 18.8795 7.28093 35.3515
347 1 18.8795 9.93018 35.3515
348 1 20.8356 8.60551 34.1054
349 1 21.8785 5.95687 35.3514
350 1 21.8785 8.60551 35.3515
351 1 23.6689 7.28095 34.1055
352 1 22.6262 7.28093 35.3515
353 1 22.6262 9.93018 35.3515
354 1 24.5811 8.60551 34.1056
355 1 25.6199 5.9567 35.356
356 1 25.6199 8.60551 35.356
357 1 27.3183 7.28101 34.1112
358 1 26.3549 7.28093 35.356
359 1 26.3549 9.93018 35.3561
360 1 28.0805 8.60552 34.1416
361 1 0.823854 -0.523738 19.5233
362 1 4.25771 27.1481 19.5233
363 1 7.97058 -0.657698 19.5233
364 1 11.717 -0.657667 19.5233
365 1 15.4637 -0.657668 19.5233
366 1 19.2105 -0.657683 19.5233
367 1 22.9487 -0.659003 19.5233
368 1 26.47 26.9527 19.5233
369 1 -0.582236 0.930058 22.1727
370 1 1.17409 26.9526 20.848
371 1 1.17396 26.9524 23.496
372 1 0.8238 -0.523568 22.1724
373 1 0.357736 2.04269 22.1727
374 1 2.17207 0.963476 20.848
375 1 2.17207 0.963472 23.4973
376 1 3.00731 0.932431 22.1727
377 1 4.69558 -0.659007 20.848
378 1 4.69559 -0.659009 23.4973
379 1 4.25774 27.1481 22.1726
380 1 4.01328 2.02392 22.1726
381 1 5.90496 0.932449 20.848
382 1 5.90496 0.93245 23.4973
383 1 6.75406 0.930553 22.1726
384 1 8.4338 -0.657685 20.848
385 1 8.4338 -0.657684 23.4973
386 1 7.97059 -0.657627 22.1726
387 1 7.75678 2.02297 22.1726
388 1 9.65 0.930593 20.848
389 1 9.65 0.930593 23.4973
390 1 10.5006 0.930593 22.1726
391 1 12.1805 -0.657673 20.848
392 1 12.1805 -0.657673 23.4973
393 1 11.717 -0.657597 22.1726
394 1 11.5035 2.02294 22.1726
395 1 13.3968 0.930587 20.848
396 1 13.3968 0.930587 23.4973
397 1 14.2474 0.930589 22.1726
398 1 15.9273 -0.657657 20.848
399 1 15.9273 -0.657657 23.4973
400 1 15.4638 -0.657598 22.1726
401 1 15.2502 2.02294 22.1726
402 1 17.1436 0.930581 20.848
403 1 17.1436 0.930581 23.4973
404 1 17.9942 0.930601 22.1726
405 1 19.6737 -0.657688 20.848
406 1 19.6737 -0.657688 23.4973
407 1 19.2105 -0.657613 22.1726
408 1 18.997 2.02295 22.1726
409 1 20.8902 0.930542 20.848
410 1 20.8902 0.930542 23.4973
411 1 21.7393 0.932463 22.1726
412 1 23.3865 27.1481 20.848
413 1 23.3865 27.148 23.4974
414 1 22.9487 -0.658938 22.1726
415 1 22.743 2.02333 22.1726
416 1 24.6369 0.932435 20.848
417 1 24.6369 0.932445 23.4973
418 1 25.4722 0.963461 22.1726
419 1 26.8205 -0.52373 20.8479
420 1 26.8207 -0.523452 23.4964
421 1 26.4702 26.9528 22.1724
422 1 26.4617 2.02666 22.1726
423 1 28.2265 0.930653 20.848
424 1 28.2266 0.930535 23.4977
425 1 -0.582703 0.929732 24.8233
426 1 -0.385989 3.33491 24.822
427 1 1.18252 2.02665 23.4973
428 1 1.18234 2.0264 26.1467
429 1 0.357649 2.04265 24.822
430 1 0.359301 4.63814 24.822
431 1 2.11713 3.32618 23.4973
432 1 2.11712 3.32616 26.1467
433 1 3.00731 0.932437 24.822
434 1 3.05725 3.32438 24.822
435 1 4.9013 2.02335 23.4973
436 1 4.9013 2.02335 26.1467
437 1 4.01328 2.02394 24.822
438 1 3.98748 4.6352 24.822
439 1 5.85548 3.32429 23.4973
440 1 5.85548 3.32429 26.1467
441 1 6.75407 0.930526 24.822
442 1 6.80185 3.32422 24.822
443 1 8.64725 2.02296 23.4973
444 1 8.64724 2.02296 26.1467
445 1 7.75678 2.02298 24.822
446 1 7.73373 4.63509 24.822
447 1 9.6021 3.32419 23.4973
448 1 9.6021 3.32419 26.1467
449 1 10.5007 0.930565 24.822
450 1 10.5486 3.32419 24.822
451 1 12.394 2.02296 23.4973
452 1 12.394 2.02296 26.1467
453 1 11.5035 2.02295 24.822
454 1 11.4805 4.63508 24.822
455 1 13.3489 3.32419 23.4973
456 1 13.3489 3.32419 26.1467
457 1 14.2474 0.930561 24.822
458 1 14.2954 3.32418 24.822
459 1 16.1408 2.02295 23.4973
460 1 16.1408 2.02295 26.1467
461 1 15.2502 2.02295 24.822
462 1 15.2273 4.63508 24.822
463 1 17.0957 3.32419 23.4973
464 1 17.0957 3.32419 26.1467
465 1 17.9942 0.930573 24.822
466 1 18.0422 3.32419 24.822
467 1 19.8875 2.02298 23.4973
468 1 19.8875 2.02298 26.1467
469 1 18.997 2.02296 24.822
470 1 18.9741 4.63508 24.822
471 1 20.8424 3.32422 23.4973
472 1 20.8424 3.32422 26.1467
473 1 21.7393 0.932408 24.822
474 1 21.7888 3.32429 24.822
475 1 23.631 2.02393 23.4973
476 1 23.631 2.02394 26.1467
477 1 22.743 2.02335 24.822
478 1 22.7207 4.63511 24.822
479 1 24.587 3.32439 23.4973
480 1 24.587 3.32438 26.1467
481 1 25.4721 0.963465 24.822
482 1 25.5271 3.32617 24.822
483 1 27.2865 2.04277 23.4973
484 1 27.2869 2.04256 26.1467
485 1 26.4618 2.02659 24.822
486 1 26.4314 4.63638 24.822
487 1 28.0303 3.33494 23.4973
488 1 28.0303 3.33494 26.1467
489 1 -0.386021 3.33499 27.4714
490 1 -0.388873 5.95692 27.4714
491 1 1.21286 4.63639 26.1467
492 1 1.21283 4.63641 28.7961
493 1 0.359305 4.63817 27.4714
494 1 0.355273 7.28098 27.4714
495 1 2.12272 5.95689 26.1467
496 1 2.12271 5.95691 28.7961
497 1 3.05725 3.32438 27.4714
498 1 3.05252 5.9568 27.4714
499 1 4.92354 4.63512 26.1467
500 1 4.92354 4.63513 28.7961
501 1 3.98748 4.63522 27.4714
502 1 3.9873 7.28094 27.4714
503 1 5.86008 5.95674 26.1467
504 1 5.86008 5.95676 28.7961
505 1 6.80185 3.32422 27.4714
506 1 6.79709 5.95675 27.4714
507 1 8.6702 4.6351 26.1467
508 1 8.67019 4.63511 28.7961
509 1 7.73373 4.63511 27.4714
510 1 7.7336 7.28093 27.4714
511 1 9.60683 5.95674 26.1467
512 1 9.60683 5.95676 28.7961
513 1 10.5486 3.32419 27.4714
514 1 10.5439 5.95675 27.4714
515 1 12.417 4.6351 26.1467
516 1 12.417 4.63511 28.7961
517 1 11.4805 4.63511 27.4714
518 1 11.4804 7.28093 27.4714
519 1 13.3536 5.95674 26.1467
520 1 13.3536 5.95676 28.7961
521 1 14.2954 3.32419 27.4714
522 1 14.2906 5.95675 27.4714
523 1 16.1638 4.6351 26.1467
524 1 16.1638 4.63511 28.7961
525 1 15.2273 4.63511 27.4714
526 1 15.2272 7.28093 27.4714
527 1 17.1004 5.95674 26.1467
528 1 17.1004 5.95676 28.7961
529 1 18.0422 3.32419 27.4714
530 1 18.0374 5.95675 27.4714
531 1 19.9105 4.6351 26.1467
532 1 19.9105 4.63511 28.7961
533 1 18.9741 4.63511 27.4714
534 1 18.9739 7.28093 27.4714
535 1 20.8472 5.95674 26.1467
536 1 20.8472 5.95676 28.7961
537 1 21.7888 3.32429 27.4714
538 1 21.7842 5.95675 27.4714
539 1 23.6568 4.63521 26.1467
540 1 23.6568 4.63522 28.7961
541 1 22.7207 4.63513 27.4714
542 1 22.7206 7.28093 27.4714
543 1 24.5918 5.95679 26.1467
544 1 24.5918 5.95681 28.7961
545 1 25.5272 3.32615 27.4714
546 1 25.5216 5.9569 27.4714
547 1 27.285 4.63816 26.1467
548 1 27.285 4.63822 28.7961
549 1 26.4314 4.63642 27.4714
550 1 26.4321 7.28096 27.4714
551 1 28.0332 5.95694 26.1467
552 1 28.0332 5.957 28.7962
553 1 -0.389169 5.95692 30.1212
554 1 -0.389206 8.60549 30.1212
555 1 1.21213 7.28096 28.7961
556 1 1.21141 7.28096 31.4462
557 1 0.355096 7.28099 30.1208
558 1 0.355036 9.93018 30.1209
559 1 2.12267 8.60552 28.7961
560 1 2.12211 8.60553 31.4454
561 1 3.05244 5.9568 30.1208
562 1 3.05224 8.60552 30.1208
563 1 4.92365 7.28094 28.7961
564 1 4.92388 7.28094 31.4451
565 1 3.98732 7.28095 30.1207
566 1 3.98734 9.93018 30.1207
567 1 5.86024 8.60551 28.7961
568 1 5.85997 8.60552 31.4451
569 1 6.79705 5.95675 30.1207
570 1 6.79689 8.60552 30.1207
571 1 8.67033 7.28093 28.7961
572 1 8.67059 7.28093 31.4451
573 1 7.73363 7.28094 30.1207
574 1 7.73365 9.93018 30.1207
575 1 9.60699 8.60551 28.7961
576 1 9.60673 8.60552 31.4451
577 1 10.5438 5.95675 30.1207
578 1 10.5437 8.60552 30.1207
579 1 12.4171 7.28093 28.7961
580 1 12.4174 7.28093 31.4451
581 1 11.4804 7.28094 30.1207
582 1 11.4804 9.93018 30.1207
583 1 13.3538 8.60551 28.7961
584 1 13.3535 8.60552 31.4451
585 1 14.2906 5.95675 30.1207
586 1 14.2904 8.60552 30.1207
587 1 16.1639 7.28093 28.7961
588 1 16.1642 7.28093 31.4451
589 1 15.2272 7.28094 30.1207
590 1 15.2272 9.93018 30.1207
591 1 17.1006 8.60551 28.7961
592 1 17.1003 8.60552 31.4451
593 1 18.0374 5.95675 30.1207
594 1 18.0372 8.60552 30.1207
595 1 19.9107 7.28093 28.7961
596 1 19.9109 7.28093 31.4451
597 1 18.974 7.28094 30.1207
598 1 18.974 9.93018 30.1207
599 1 20.8474 8.60551 28.7961
600 1 20.8471 8.60552 31.4451
601 1 21.7842 5.95675 30.1207
602 1 21.784 8.60552 30.1207
603 1 23.657 7.28094 28.7961
604 1 23.6573 7.28094 31.4452
605 1 22.7207 7.28094 30.1207
606 1 22.7207 9.93018 30.1207
607 1 24.592 8.60551 28.7961
608 1 24.5919 8.60552 31.4452
609 1 25.5216 5.9569 30.1208
610 1 25.5216 8.60552 30.1208
611 1 27.289 7.281 28.7961
612 1 27.2907 7.281 31.4455
613 1 26.4324 7.28097 30.121
614 1 26.4324 9.93019 30.121
615 1 28.0333 8.60553 28.7962
616 1 28.0352 8.60557 31.4476
617 1 -0.397674 8.60549 32.7802
618 1 -0.397668 11.2548 32.7802
619 1 1.21136 9.93018 31.4462
620 1 1.19729 9.93018 34.1128
621 1 0.352086 9.93019 32.7698
622 1 0.352086 12.5795 32.7698
623 1 2.12211 11.2549 31.4454
624 1 2.10538 11.2549 34.1089
625 1 3.04964 8.60552 32.7681
626 1 3.04964 11.2549 32.7681
627 1 4.92386 9.93019 31.4451
628 1 4.93534 9.93019 34.1054
629 1 3.9888 9.93019 32.768
630 1 3.9888 12.5796 32.768
631 1 5.85997 11.2549 31.4451
632 1 5.84845 11.2549 34.1054
633 1 6.79524 8.60552 32.7678
634 1 6.79524 11.2549 32.7678
635 1 8.67057 9.93019 31.4451
636 1 8.68208 9.93019 34.1054
637 1 7.7353 9.93019 32.7678
638 1 7.7353 12.5796 32.7678
639 1 9.60673 11.2549 31.4451
640 1 9.59522 11.2549 34.1054
641 1 10.542 8.60552 32.7678
642 1 10.542 11.2549 32.7678
643 1 12.4173 9.93019 31.4451
644 1 12.4289 9.93019 34.1054
645 1 11.4821 9.93019 32.7678
646 1 11.4821 12.5796 32.7678
647 1 13.3535 11.2549 31.4451
648 1 13.342 11.2549 34.1054
649 1 14.2888 8.60552 32.7678
650 1 14.2888 11.2549 32.7678
651 1 16.1641 9.93019 31.4451
652 1 16.1757 9.93019 34.1054
653 1 15.2289 9.93019 32.7678
654 1 15.2289 12.5796 32.7678
655 1 17.1003 11.2549 31.4451
656 1 17.0888 11.2549 34.1054
657 1 18.0356 8.60552 32.7678
658 1 18.0356 11.2549 32.7678
659 1 19.9109 9.93019 31.4451
660 1 19.9224 9.93019 34.1054
661 1 18.9756 9.93019 32.7678
662 1 18.9756 12.5796 32.7678
663 1 20.8471 11.2549 31.4451
664 1 20.8356 11.2549 34.1054
665 1 21.7824 8.60552 32.7678
666 1 21.7824 11.2549 32.7678
667 1 23.6573 9.93019 31.4452
668 1 23.6689 9.93019 34.1055
669 1 22.7224 9.93019 32.7678
670 1 22.7224 12.5796 32.7678
671 1 24.5919 11.2549 31.4452
672 1 24.5811 11.2549 34.1056
673 1 25.5211 8.60552 32.7689
674 1 25.5211 11.2549 32.7689
675 1 27.2908 9.9302 31.4455
676 1 27.3184 9.9302 34.1112
677 1 26.44 9.9302 32.7708
678 1 26.44 12.5796 32.7708
679 1 28.0352 11.2549 31.4476
680 1 28.0805 11.2549 34.1416
681 1 -0.476364 11.2548 35.6091
682 1 -0.476373 13.9042 35.6091
683 1 1.19729 12.5796 34.1128
684 1 0.19093 12.5796 35.404
685 1 0.190942 15.2289 35.404
686 1 2.10537 13.9042 34.1089
687 1 3.14523 11.2549 35.3518
688 1 3.14523 13.9042 35.3518
689 1 4.93534 12.5796 34.1054
690 1 3.89251 12.5796 35.3516
691 1 3.89251 15.2289 35.3517
692 1 5.84845 13.9042 34.1054
693 1 6.89142 11.2549 35.3515
694 1 6.89142 13.9042 35.3515
695 1 8.68208 12.5796 34.1054
696 1 7.63914 12.5796 35.3515
697 1 7.63914 15.2289 35.3515
698 1 9.59522 13.9042 34.1054
699 1 10.6382 11.2549 35.3515
700 1 10.6382 13.9042 35.3515
701 1 12.4289 12.5796 34.1054
702 1 11.3859 12.5796 35.3515
703 1 11.3859 15.2289 35.3515
704 1 13.342 13.9042 34.1054
705 1 14.385 11.2549 35.3515
706 1 14.385 13.9042 35.3515
707 1 16.1757 12.5796 34.1054
708 1 15.1327 12.5796 35.3515
709 1 15.1327 15.2289 35.3515
710 1 17.0888 13.9042 34.1054
711 1 18.1318 11.2549 35.3515
712 1 18.1318 13.9042 35.3515
713 1 19.9224 12.5796 34.1054
714 1 18.8795 12.5796 35.3515
715 1 18.8795 15.2289 35.3515
716 1 20.8356 13.9042 34.1054
717 1 21.8785 11.2549 35.3515
718 1 21.8785 13.9042 35.3515
719 1 23.6689 12.5796 34.1055
720 1 22.6262 12.5796 35.3515
721 1 22.6262 15.2289 35.3515
722 1 24.5811 13.9042 34.1056
723 1 25.6199 11.2549 35.356
724 1 25.6199 13.9042 35.356
725 1 27.3183 12.5796 34.1112
726 1 26.3549 12.5796 35.356
727 1 26.3549 15.2289 35.3561
728 1 28.0805 13.9042 34.1416
729 1 0.823854 -0.523738 14.2245
730 1 4.25771 27.1481 14.2245
731 1 7.97058 -0.657698 14.2245
732 1 11.717 -0.657667 14.2245
733 1 15.4637 -0.657668 14.2245
734 1 19.2105 -0.657683 14.2245
735 1 22.9487 -0.659003 14.2245
736 1 26.47 26.9527 14.2245
737 1 -0.582236 0.93009 16.8739
738 1 1.17411 26.9526 15.5492
739 1 1.17411 26.9526 18.1986
740 1 0.823862 -0.523633 16.8739
741 1 0.35774 2.04269 16.8739
742 1 2.17207 0.963476 15.5492
743 1 2.17207 0.963476 18.1986
744 1 3.00732 0.932429 16.8739
745 1 4.69558 -0.659006 15.5492
746 1 4.69558 -0.659006 18.1986
747 1 4.25772 27.1481 16.8739
748 1 4.01328 2.02392 16.8739
749 1 5.90496 0.932448 15.5492
750 1 5.90496 0.932448 18.1986
751 1 6.75406 0.930553 16.8739
752 1 8.4338 -0.657685 15.5492
753 1 8.4338 -0.657685 18.1986
754 1 7.97059 -0.657627 16.8739
755 1 7.75678 2.02297 16.8739
756 1 9.65 0.930593 15.5492
757 1 9.65 0.930593 18.1986
758 1 10.5006 0.930593 16.8739
759 1 12.1805 -0.657673 15.5492
760 1 12.1805 -0.657673 18.1986
761 1 11.717 -0.657597 16.8739
762 1 11.5035 2.02294 16.8739
763 1 13.3968 0.930587 15.5492
764 1 13.3968 0.930587 18.1986
765 1 14.2474 0.930589 16.8739
766 1 15.9273 -0.657657 15.5492
767 1 15.9273 -0.657657 18.1986
768 1 15.4638 -0.657598 16.8739
769 1 15.2502 2.02294 16.8739
770 1 17.1436 0.930581 15.5492
771 1 17.1436 0.930581 18.1986
772 1 17.9942 0.930601 16.8739
773 1 19.6737 -0.657688 15.5492
774 1 19.6737 -0.657688 18.1986
775 1 19.2105 -0.657613 16.8739
776 1 18.997 2.02295 16.8739
777 1 20.8902 0.930542 15.5492
778 1 20.8902 0.930542 18.1986
779 1 21.7393 0.932461 16.8739
780 1 23.3865 27.1481 15.5492
781 1 23.3865 27.1481 18.1986
782 1 22.9487 -0.658935 16.8739
783 1 22.743 2.02333 16.8739
784 1 24.6369 0.932434 15.5492
785 1 24.6369 0.932434 18.1986
786 1 25.4722 0.963462 16.8739
787 1 26.8205 -0.523739 15.5492
788 1 26.8205 -0.523739 18.1987
789 1 26.4701 26.9528 16.8739
790 1 26.4617 2.02667 16.8739
791 1 28.2265 0.930658 15.5492
792 1 28.2265 0.930658 18.1986
793 1 -0.582141 0.930049 19.5233
794 1 -0.385984 3.33491 19.5233
795 1 1.18255 2.02668 18.1986
796 1 1.18255 2.02668 20.848
797 1 0.357755 2.04271 19.5233
798 1 0.359302 4.63814 19.5233
799 1 2.11713 3.32618 18.1986
800 1 2.11713 3.32618 20.848
801 1 3.00732 0.932415 19.5233
802 1 3.05725 3.32439 19.5233
803 1 4.9013 2.02335 18.1986
804 1 4.9013 2.02335 20.848
805 1 4.01328 2.02394 19.5233
806 1 3.98748 4.63519 19.5233
807 1 5.85548 3.32429 18.1986
808 1 5.85548 3.32429 20.848
809 1 6.75408 0.930526 19.5233
810 1 6.80185 3.32422 19.5233
811 1 8.64725 2.02296 18.1986
812 1 8.64725 2.02296 20.848
813 1 7.75678 2.02298 19.5233
814 1 7.73373 4.63509 19.5233
815 1 9.6021 3.32419 18.1986
816 1 9.6021 3.32419 20.848
817 1 10.5007 0.930565 19.5233
818 1 10.5486 3.32419 19.5233
819 1 12.394 2.02296 18.1986
820 1 12.394 2.02296 20.848
821 1 11.5035 2.02295 19.5233
822 1 11.4805 4.63508 19.5233
823 1 13.3489 3.32419 18.1986
824 1 13.3489 3.32419 20.848
825 1 14.2474 0.930561 19.5233
826 1 14.2954 3.32418 19.5233
827 1 16.1408 2.02295 18.1986
828 1 16.1408 2.02295 20.848
829 1 15.2502 2.02295 19.5233
830 1 15.2273 4.63508 19.5233
831 1 17.0957 3.32419 18.1986
832 1 17.0957 3.32419 20.848
833 1 17.9942 0.930573 19.5233
834 1 18.0422 3.32419 19.5233
835 1 19.8875 2.02298 18.1986
836 1 19.8875 2.02298 20.848
837 1 18.997 2.02296 19.5233
838 1 18.9741 4.63508 19.5233
839 1 20.8424 3.32422 18.1986
840 1 20.8424 3.32422 20.848
841 1 21.7393 0.93243 19.5233
842 1 21.7888 3.32429 19.5233
843 1 23.631 2.02393 18.1986
844 1 23.631 2.02393 20.848
845 1 22.743 2.02335 19.5233
846 1 22.7207 4.63511 19.5233
847 1 24.587 3.32439 18.1986
848 1 24.587 3.32439 20.848
849 1 25.4722 0.963472 19.5233
850 1 25.5271 3.32618 19.5233
851 1 27.2865 2.04279 18.1986
852 1 27.2865 2.04279 20.848
853 1 26.4617 2.02669 19.5233
854 1 26.4314 4.63638 19.5233
855 1 28.0303 3.33494 18.1986
856 1 28.0303 3.33494 20.848
857 1 -0.385984 3.33491 22.1726
858 1 -0.388859 5.95693 22.1726
859 1 1.21287 4.63639 20.848
860 1 1.21287 4.63639 23.4973
861 1 0.359302 4.63816 22.1726
862 1 0.35528 7.28096 22.1726
863 1 2.12272 5.95688 20.848
864 1 2.12272 5.95688 23.4973
865 1 3.05725 3.32439 22.1726
866 1 3.05252 5.95679 22.1726
867 1 4.92354 4.63512 20.848
868 1 4.92354 4.63512 23.4973
869 1 3.98748 4.63521 22.1726
870 1 3.9873 7.28091 22.1726
871 1 5.86008 5.95674 20.848
872 1 5.86008 5.95674 23.4973
873 1 6.80185 3.32422 22.1726
874 1 6.79709 5.95673 22.1726
875 1 8.6702 4.63509 20.848
876 1 8.6702 4.63509 23.4973
877 1 7.73373 4.63511 22.1726
878 1 7.7336 7.28091 22.1726
879 1 9.60683 5.95673 20.848
880 1 9.60683 5.95673 23.4973
881 1 10.5486 3.32419 22.1726
882 1 10.5439 5.95673 22.1726
883 1 12.417 4.63509 20.848
884 1 12.417 4.63509 23.4973
885 1 11.4805 4.6351 22.1726
886 1 11.4804 7.28091 22.1726
887 1 13.3536 5.95673 20.848
888 1 13.3536 5.95673 23.4973
889 1 14.2954 3.32419 22.1726
890 1 14.2906 5.95673 22.1726
891 1 16.1638 4.63509 20.848
892 1 16.1638 4.63509 23.4973
893 1 15.2273 4.6351 22.1726
894 1 15.2272 7.28091 22.1726
895 1 17.1004 5.95673 20.848
896 1 17.1004 5.95673 23.4973
897 1 18.0422 3.32419 22.1726
898 1 18.0374 5.95673 22.1726
899 1 19.9105 4.6351 20.848
900 1 19.9105 4.6351 23.4973
901 1 18.9741 4.6351 22.1726
902 1 18.9739 7.28091 22.1726
903 1 20.8472 5.95673 20.848
904 1 20.8472 5.95674 23.4973
905 1 21.7888 3.32429 22.1726
906 1 21.7842 5.95674 22.1726
907 1 23.6568 4.6352 20.848
908 1 23.6568 4.6352 23.4973
909 1 22.7207 4.63513 22.1726
910 1 22.7206 7.28091 22.1726
911 1 24.5918 5.95679 20.848
912 1 24.5918 5.95679 23.4973
913 1 25.5271 3.32618 22.1726
914 1 25.5216 5.95688 22.1726
915 1 27.285 4.63816 20.848
916 1 27.285 4.63816 23.4973
917 1 26.4314 4.63641 22.1726
918 1 26.4321 7.28093 22.1726
919 1 28.0332 5.95693 20.848
920 1 28.0332 5.95693 23.4973
921 1 -0.388863 5.95693 24.822
922 1 -0.388894 8.60549 24.822
923 1 1.21216 7.28095 23.4973
924 1 1.21216 7.28096 26.1467
925 1 0.355279 7.28098 24.822
926 1 0.355221 9.93018 24.8221
927 1 2.12268 8.60551 23.4974
928 1 2.12268 8.60553 26.1467
929 1 3.05252 5.95679 24.822
930 1 3.05233 8.60551 24.822
931 1 4.92365 7.28092 23.4973
932 1 4.92365 7.28093 26.1467
933 1 3.9873 7.28094 24.822
934 1 3.98732 9.93018 24.822
935 1 5.86023 8.60551 23.4974
936 1 5.86023 8.60552 26.1467
937 1 6.79709 5.95674 24.822
938 1 6.79692 8.60551 24.822
939 1 8.67033 7.28092 23.4973
940 1 8.67033 7.28093 26.1467
941 1 7.7336 7.28093 24.822
942 1 7.73362 9.93018 24.822
943 1 9.60699 8.60551 23.4974
944 1 9.60699 8.60552 26.1467
945 1 10.5439 5.95674 24.822
946 1 10.5437 8.60551 24.822
947 1 12.4171 7.28092 23.4973
948 1 12.4171 7.28093 26.1467
949 1 11.4804 7.28093 24.822
950 1 11.4804 9.93018 24.822
951 1 13.3538 8.60551 23.4974
952 1 13.3538 8.60552 26.1467
953 1 14.2906 5.95674 24.822
954 1 14.2905 8.60551 24.822
955 1 16.1639 7.28092 23.4973
956 1 16.1639 7.28093 26.1467
957 1 15.2272 7.28093 24.822
958 1 15.2272 9.93018 24.822
959 1 17.1006 8.60551 23.4974
960 1 17.1006 8.60552 26.1467
961 1 18.0374 5.95674 24.822
962 1 18.0373 8.60551 24.822
963 1 19.9107 7.28092 23.4973
964 1 19.9107 7.28093 26.1467
965 1 18.9739 7.28093 24.822
966 1 18.974 9.93018 24.822
967 1 20.8474 8.60551 23.4974
968 1 20.8474 8.60552 26.1467
969 1 21.7842 5.95674 24.822
970 1 21.784 8.60551 24.822
971 1 23.657 7.28093 23.4973
972 1 23.657 7.28094 26.1467
973 1 22.7206 7.28094 24.822
974 1 22.7206 9.93018 24.822
975 1 24.5919 8.60551 23.4974
976 1 24.5919 8.60552 26.1467
977 1 25.5216 5.95689 24.822
978 1 25.5216 8.60552 24.822
979 1 27.289 7.28097 23.4973
980 1 27.289 7.28099 26.1467
981 1 26.4321 7.28096 24.822
982 1 26.4322 9.93019 24.822
983 1 28.0332 8.60552 23.4973
984 1 28.0332 8.60557 26.1467
985 1 -0.388905 8.60549 27.4714
986 1 -0.388901 11.2548 27.4714
987 1 1.21211 9.93018 26.1467
988 1 1.21208 9.93018 28.7961
989 1 0.355214 9.93019 27.4714
990 1 0.355214 12.5795 27.4714
991 1 2.12268 11.2549 26.1467
992 1 2.12267 11.2549 28.7961
993 1 3.05233 8.60552 27.4714
994 1 3.05232 11.2549 27.4714