

LAMMPS data file from restart file: timestep = 1, procs = 1


10 atoms


2 atom types


0 3.567 xlo xhi
0 3.567 ylo yhi
0 3.567 zlo zhi


Masses


1 12.01
2 1.0079


Atoms

1 0.8918 7e-05 2.52225
1 0.0 1.261195 7.1e-05
1 1.7835 7e-05 1.261196
1 0.8918 0.00014 7.1e-05
1 0.8918 2.52232 0.0
1 2.6752 1.261195 1.261125
1 0.0 1.261195 2.522321
1 0.0 3.783445 2.522321
1 1.7835 2.52232 1.261196
1 0.8918 2.52239 2.522321
