LAMMPS data file from restart file: timestep = 1, procs = 1

4839 atoms

3 atom types

0.0000000000000000e+00 2.8536000000000001e+01 xlo xhi
0.0000000000000000e+00 2.8536000000000001e+01 ylo yhi
-8.0000000000000000e+01 1.0738700000000000e+02 zlo zhi

Masses

1 12.01
2 2.0014
3 3.0160

 Atoms

1 1 2.64051 2.36689 -21.0004
2 1 3.3202 1.14487 -20.8266
3 1 4.69995 1.2229 -20.5198
4 1 1.22992 2.3995 -21.109
5 1 0.629519 1.22391 -20.674
6 1 3.40126 3.5036 -21.2587
7 2 0.289446 6.03421 -15.8538
8 1 4.70667 3.35675 -21.6131
9 1 3.9221 5.76562 -21.936
10 1 2.80878 4.90414 -21.2494
11 1 5.10957 6.38705 -21.7313
12 1 1.37937 4.79036 -21.8346
13 1 0.713221 3.68455 -21.4695
14 2 0.985055 5.69756 -22.3631
15 2 2.73691 5.3743 -20.3149
16 1 1.05312 4.85464 -13.4715
17 1 2.38242 4.54458 -13.1302
18 2 4.95918 2.0956 -19.9204
19 2 1.45927 3.09126 -18.8374
20 2 1.80945 3.40397 -19.3629
21 2 3.45206 0.63304 -16.5159
22 1 3.29603 5.63068 -13.2371
23 2 0.686673 4.54863 -16.712
24 2 0.440278 6.1628 -17.7076
25 1 0.803389 5.6506 -16.7338
26 2 1.86612 0.379287 -14.862
27 2 0.830808 5.86398 -13.8314
28 2 4.26038 5.34351 -13.6
29 2 1.83365 5.85521 -16.5627
30 2 4.93502 1.34296 -11.0627
31 1 4.71308 1.54478 -12.0958
32 1 4.13399 2.94384 -12.3989
33 1 2.80365 3.22629 -12.745
34 1 1.90267 2.06366 -12.6674
35 1 2.43354 0.756216 -12.5604
36 1 0.49135 2.20977 -12.8161
37 1 3.79914 0.482622 -12.7183
38 1 3.11612 7.03042 -13.0285
39 1 4.48197 6.79314 -2.12453
40 1 3.0981 7.10105 -1.39287
41 1 2.48399 5.8122 -2.11438
42 1 5.00878 5.38533 -11.9606
43 1 5.00898 4.01635 -11.9251
44 1 5.26121 6.69265 -12.038
45 2 1.04887 7.06513 -12.435
46 2 4.30157 2.29625 -6.73885
47 2 1.93393 0.689369 -6.94122
48 1 0.580796 3.02376 -6.68178
49 2 1.12232 3.21616 -7.6235
50 2 1.25181 5.2302 -7.18147
51 2 0.62847 6.70192 -7.79607
52 1 2.11119 1.05982 -5.98905
53 1 3.12284 0.124405 -3.81704
54 2 2.4627 0.305836 -4.95123
55 1 0.617362 1.41315 -4.71829
56 1 1.40349 2.46157 -5.60176
57 1 3.50532 1.16566 -5.12774
58 1 4.38131 2.27028 -5.64231
59 1 0.852203 1.21448 -3.2406
60 2 2.27181 3.37337 -3.73587
61 1 2.17513 3.50921 -4.78558
62 1 3.61057 3.63968 -5.31075
63 1 1.58661 6.90184 -5.81005
64 1 0.710823 5.51964 -6.25667
65 2 0.986715 6.76495 -3.26453
66 2 4.66605 4.51106 -3.42401
67 2 0.874847 5.06636 -4.20886
68 1 0.85667 4.4303 -5.10286
69 1 3.87583 6.12039 -5.08095
70 1 2.53271 6.34275 -4.6676
71 1 4.39383 4.84026 -5.29806
72 1 1.91613 6.26927 -3.35323
73 2 4.14132 6.43342 -3.07077
74 1 0.0578737 0.41324 -5.50866
75 1 2.23482 0.748915 -2.69106
76 1 5.1285 3.1774 -1.89749
77 1 5.0786 0.652412 -1.49688
78 1 5.05902 1.70618 -0.0275709
79 1 2.97171 1.98998 -2.00677
80 1 2.34392 3.26851 -1.82589
81 1 4.34756 1.98543 -1.44323
82 1 1.03671 3.39796 -1.60387
83 1 3.35987 0.0246937 0.192788
84 1 0.11584 2.13708 -2.11406
85 1 4.48065 4.46486 -2.34914
86 1 3.02509 4.48828 -2.00581
87 1 5.17435 5.6014 -1.50723
88 1 0.187986 5.90444 -1.68186
89 1 0.086554 4.56922 -1.68983
90 1 4.94097 5.50457 0.0108956
91 2 0.0880114 3.19727 -12.1966
92 2 5.58186 4.82675 -6.86357
93 1 2.46577 2.62576 0.735206
94 1 0.575113 0.909396 0.98249
95 1 3.30255 1.83655 1.75105
96 1 4.20912 0.928414 0.930841
97 1 2.44582 1.0166 2.72803
98 1 4.18807 2.78228 2.66122
99 1 0.585503 2.73552 2.72419
100 1 5.13181 0.0978004 1.87853
101 1 1.50127 0.0912918 1.87799
102 1 1.13794 2.2525 0.464586
103 1 0.0931156 3.23649 0.473711
104 1 5.08512 1.91647 3.63408
105 1 5.03967 3.66102 1.7463
106 1 1.41452 3.79952 1.96544
107 1 3.25347 5.4842 1.87045
108 1 4.18788 4.58105 0.922528
109 1 0.512372 4.60324 0.93568
110 1 2.35981 6.40901 0.939629
111 1 4.17582 6.35821 2.72742
112 1 2.38969 4.59756 2.79372
113 1 0.542022 6.41024 2.74551
114 1 1.90747 5.02988 0.479734
115 1 5.08549 5.42612 3.57619
116 1 2.83412 3.95557 0.493781
117 1 1.50645 1.89652 3.64658
118 1 3.31685 0.0917825 3.64573
119 1 1.5178 0.162627 5.43504
120 1 3.3003 1.85957 5.44712
121 1 4.19829 0.982614 4.56945
122 1 4.17293 2.8051 6.33307
123 1 0.627088 1.00322 4.5914
124 1 0.595929 2.79485 6.37101
125 1 2.3964 0.993628 6.32427
126 1 2.44476 2.76211 4.56202
127 1 5.10007 0.103729 5.42342
128 1 3.27649 3.65416 3.6303
129 1 1.49368 5.50124 3.68043
130 1 5.09815 3.70648 5.4313
131 1 1.48315 3.73849 5.46381
132 1 3.34794 5.43278 5.41515
133 1 4.18245 4.52034 4.50445
134 1 4.22411 6.32178 6.26879
135 1 0.635154 4.58783 4.51072
136 1 0.617781 6.34015 6.35166
137 1 2.41581 4.53738 6.33522
138 1 2.46545 6.37834 4.55157
139 1 5.07513 1.92918 7.21186
140 1 3.34315 1.85191 9.00829
141 1 4.19032 2.77675 9.9119
142 1 4.18085 0.991264 8.10672
143 1 0.642384 2.80982 9.9115
144 1 2.43327 0.96972 9.91395
145 1 0.59204 1.0057 8.1242
146 1 1.48362 1.89807 7.21857
147 1 2.42546 2.76809 8.14046
148 1 5.06969 0.0669008 9.03164
149 1 3.29535 0.120469 7.21899
150 1 1.5329 0.160386 9.01591
151 1 1.53711 3.72286 8.99059
152 1 5.11536 3.68528 9.04896
153 1 3.29559 3.66873 7.20742
154 1 3.28517 5.50817 9.02305
155 1 4.18444 6.41551 9.87566
156 1 4.18196 4.58516 8.15706
157 1 0.618646 6.40388 9.86739
158 1 2.39298 4.62433 9.88631
159 1 0.590796 4.59254 8.13026
160 1 1.52582 5.46295 7.17968
161 1 2.45416 6.38706 8.09187
162 1 5.14481 5.4863 7.19257
163 1 5.06603 0.134479 12.6189
164 1 5.10063 1.92638 10.8073
165 1 4.19185 2.81028 13.5062
166 1 0.614192 1.02877 11.7347
167 1 1.56441 1.90699 10.8175
168 1 2.4547 2.84668 11.7233
169 1 3.30035 1.93971 12.5919
170 1 4.15519 0.996524 11.713
171 1 2.3877 1.03748 13.4852
172 1 0.610007 2.86274 13.5211
173 1 3.29381 0.0820538 10.8369
174 1 1.44416 0.133449 12.5899
175 1 3.27836 5.51497 12.5923
176 1 2.35523 4.62889 13.4376
177 1 1.50031 5.49656 10.7869
178 1 3.31782 3.74853 10.7976
179 1 4.16425 4.63316 11.7218
180 1 5.09674 5.49186 10.76
181 1 0.600335 4.60406 11.7183
182 1 5.08017 3.72927 12.6216
183 1 1.48688 3.70092 12.5885
184 1 0.578096 6.3636 13.522
185 1 4.16566 6.34787 13.517
186 1 2.33901 6.39608 11.6876
187 1 4.16285 0.998892 15.3149
188 1 2.37852 2.8419 15.2834
189 1 1.49581 1.9742 14.3631
190 1 0.575018 1.08339 15.2658
191 1 3.28859 1.89621 16.2063
192 1 5.03333 1.88807 14.4093
193 1 3.30352 0.166227 14.367
194 1 5.0502 0.162923 16.1934
195 1 1.49466 0.189609 16.1539
196 1 0.622083 2.85429 17.0467
197 1 5.08438 3.6992 16.2135
198 1 3.28582 3.71902 14.3799
199 1 1.52449 3.68495 16.2017
200 1 4.20172 4.62448 15.2626
201 1 0.567533 4.62851 15.318
202 1 1.4688 5.49978 14.4312
203 1 2.38218 6.39599 15.2869
204 1 3.2976 5.48057 16.147
205 1 5.08259 5.49296 14.4196
206 1 2.44753 4.59285 17.0687
207 1 0.568613 6.37548 17.1268
208 1 4.17353 6.37413 17.0468
209 1 4.2011 2.7931 17.1326
210 1 2.39517 1.04021 17.1101
211 1 4.19856 1.01638 18.8854
212 1 2.41787 2.81443 18.8505
213 1 1.5042 1.90059 17.9564
214 1 0.602071 1.03238 18.8491
215 1 3.30698 1.93528 19.7947
216 1 5.08899 1.88257 17.9942
217 1 5.05468 0.1948 19.7995
218 1 3.26462 0.141358 17.9834
219 1 1.46441 0.108091 19.7613
220 1 5.10801 3.73036 19.7448
221 1 1.49414 3.69135 19.7083
222 1 3.34422 3.66776 17.9797
223 1 5.07777 5.50002 17.9473
224 1 1.49921 5.49998 17.9867
225 1 3.2737 5.46683 19.7705
226 1 2.43 6.34484 18.8559
227 1 4.22608 4.54448 18.8248
228 1 0.628222 4.62604 18.855
229 1 4.20187 2.82521 20.6663
230 1 2.3937 1.05052 20.6486
231 1 0.598545 2.77437 20.5765
232 1 2.40564 4.55839 20.6048
233 1 4.11974 6.43475 20.5991
234 1 0.672915 6.28725 20.6103
235 2 3.8244 8.95073 -21.0266
236 1 1.09455 8.05599 -20.4274
237 1 3.53786 8.80391 -20.0114
238 1 2.58143 9.98803 -13.0936
239 2 4.24306 10.5608 -20.4441
240 1 0.951142 13.995 -20.1217
241 2 3.5478 13.5897 -20.3556
242 2 0.244811 7.68749 -15.5366
243 1 2.11283 8.92734 -19.5727
244 1 1.64733 10.4021 -19.4232
245 1 4.5147 8.15144 -19.2338
246 2 2.0972 8.48649 -18.6085
247 2 4.29721 9.95129 -18.7826
248 2 0.795112 8.1326 -17.3612
249 2 5.45181 13.2607 -19.3153
250 1 1.68699 12.9422 -19.594
251 1 3.07764 12.8242 -19.7497
252 1 4.64476 10.75 -19.4488
253 1 5.61541 11.9271 -17.1445
254 1 0.960522 11.6903 -18.9795
255 1 4.05979 12.0881 -18.928
256 1 4.58096 12.5414 -17.7442
257 2 1.12556 11.8336 -17.8729
258 2 4.132 13.4646 -17.289
259 1 0.317117 9.39387 -13.5934
260 2 0.12228 10.408 -14.0584
261 1 1.60124 8.9976 -13.1567
262 2 4.20062 7.41619 -18.5234
263 2 4.84976 8.19577 -13.739
264 2 4.97624 7.42044 -21.9837
265 2 2.96347 13.0614 -13.6104
266 1 0.386552 8.57391 -18.2299
267 2 2.66054 14.2245 -22.0423
268 1 0.175941 7.1846 -20.8632
269 2 1.39356 11.6055 -13.2053
270 1 5.02949 9.25071 -10.6922
271 1 4.76467 9.29215 -12.2427
272 1 3.79739 10.4179 -12.6289
273 1 1.50374 12.7223 0.18915
274 2 5.45872 14.1666 -3.61987
275 1 4.38791 7.76756 -12.7616
276 1 1.2054 12.1398 -11.9777
277 1 2.20178 13.1207 -11.5385
278 2 2.95699 12.8815 -10.8326
279 1 3.47773 13.0483 -12.666
280 1 4.19759 11.7272 -12.4315
281 1 5.42926 12.5297 -10.3292
282 2 -0.0586879 12.132 -10.3056
283 1 5.66307 11.868 -11.7444
284 2 1.10706 8.63663 -10.0708
285 2 0.698406 8.24267 -9.50529
286 2 3.3765 9.64563 -9.12774
287 2 3.38465 9.11754 -9.60079
288 2 1.481 8.12572 -7.75318
289 1 0.786735 7.55475 -7.09342
290 2 0.674035 9.44219 -6.85755
291 1 5.11855 8.35118 -8.50421
292 2 4.06627 8.08278 -8.38746
293 2 2.50778 10.8399 -8.08839
294 1 1.89633 7.65174 -12.7954
295 2 5.64556 8.1669 -7.53523
296 1 2.47772 10.733 -6.9907
297 1 1.70244 11.9612 -6.67354
298 1 0.331962 11.8462 -6.77286
299 2 5.30599 12.6659 -9.28359
300 1 3.87087 10.7943 -6.46249
301 1 1.74892 9.46994 -6.6133
302 2 0.688725 10.4603 -3.85863
303 1 4.47062 9.55816 -6.21137
304 1 2.42089 8.29082 -6.19408
305 1 3.79233 8.33234 -6.13461
306 1 4.53678 7.22289 -5.70365
307 1 1.43315 14.209 -5.49557
308 1 2.28689 13.1564 -6.17551
309 1 4.44083 12.0114 -6.12899
310 1 0.537404 13.4332 -4.51132
311 1 3.69829 13.215 -5.91397
312 1 1.14394 12.9807 -3.26746
313 1 4.48799 14.2333 -1.32488
314 1 5.09696 8.99526 0.153336
315 1 1.3631 8.89433 -1.20571
316 1 2.43623 8.40416 -1.92859
317 1 3.21925 9.37757 -2.50197
318 1 4.63814 9.29454 -2.46913
319 1 0.228616 9.58607 -1.93737
320 1 5.3147 8.08112 -2.30263
321 1 5.338 10.5417 -2.21821
322 1 3.21715 7.19977 0.112542
323 1 1.46159 9.01086 0.153268
324 1 2.46209 10.5461 -2.65066
325 1 0.937519 10.5897 -2.83651
326 1 3.17281 11.7803 -2.5789
327 1 3.33553 10.8056 0.0947633
328 1 5.21939 12.8866 -1.44489
329 1 2.94394 14.1506 -1.67311
330 1 0.323928 12.0034 -2.544
331 1 2.47219 13.0601 -2.60042
332 1 5.1147 12.6174 0.0731127
333 1 4.54604 11.7082 -2.15994
334 2 0.0566093 10.119 -5.39251
335 1 0.558362 8.1811 0.984174
336 1 2.3595 9.88966 0.940609
337 1 3.2437 9.03102 1.87416
338 1 4.15279 8.08487 1.00689
339 1 4.13697 9.94631 2.73603
340 1 0.642877 9.97374 2.76504
341 1 2.3367 8.18153 2.76594
342 1 1.43515 7.31069 1.82081
343 1 5.09902 7.16416 1.8602
344 1 5.06736 9.01496 3.63383
345 1 3.29545 7.24662 3.6232
346 1 1.50892 9.0825 3.63845
347 1 1.45856 10.819 1.85143
348 1 5.07441 10.8616 1.81845
349 1 3.31958 12.6589 1.78836
350 1 4.17871 11.7584 0.899921
351 1 0.562762 11.7346 0.98626
352 1 2.44307 13.5211 0.910866
353 1 4.21381 13.5387 2.68184
354 1 0.57342 13.5221 2.74944
355 1 2.40963 11.7475 2.7104
356 1 3.30922 10.8467 3.61247
357 1 1.52543 12.6257 3.62593
358 1 5.04091 12.5712 3.60102
359 1 4.17984 9.96488 6.32463
360 1 3.27623 9.05952 5.4352
361 1 4.15274 8.15452 4.53351
362 1 0.577028 9.95537 6.33721
363 1 2.39361 9.94197 4.5328
364 1 0.591677 8.15954 4.54757
365 1 2.40722 8.14819 6.32853
366 1 1.53233 7.28797 5.47655
367 1 5.11279 7.26163 5.42268
368 1 5.06481 10.8702 5.39076
369 1 1.48957 10.831 5.41661
370 1 3.25265 12.6248 5.4419
371 1 4.15653 13.5365 6.31463
372 1 4.15824 11.7506 4.5186
373 1 0.600351 13.5325 6.31049
374 1 2.42093 13.5141 4.52847
375 1 0.627224 11.7785 4.51454
376 1 2.37553 11.7493 6.32775
377 1 3.33052 7.22652 7.20503
378 1 4.13024 9.95033 9.90311
379 1 3.27286 9.05953 8.98484
380 1 4.16898 8.13905 8.12338
381 1 0.587761 9.93696 9.90995
382 1 1.49864 9.05106 7.21708
383 1 2.40115 9.94708 8.09531
384 1 2.387 8.16454 9.88331
385 1 0.665108 8.20221 8.13692
386 1 5.07549 9.03602 7.17865
387 1 5.04379 7.30278 9.00492
388 1 1.52073 7.29377 9.00499
389 1 5.10347 10.8557 9.01218
390 1 3.29496 10.8461 7.19747
391 1 1.49397 10.8014 8.99132
392 1 3.27549 12.6159 9.02027
393 1 4.20055 13.5316 9.92617
394 1 4.18133 11.7407 8.11902
395 1 0.579625 13.5327 9.8659
396 1 1.47494 12.6145 7.23423
397 1 2.38262 13.526 8.08909
398 1 2.37475 11.7032 9.91631
399 1 0.59988 11.7761 8.14233
400 1 5.03719 12.623 7.22436
401 1 5.06173 7.25951 12.5969
402 1 3.23482 7.27645 10.7885
403 1 1.4984 9.04301 10.7931
404 1 2.37292 9.97495 11.7022
405 1 0.577827 8.12796 11.7523
406 1 3.28019 9.05108 12.6437
407 1 4.20934 8.171 11.7507
408 1 4.17485 9.93097 13.5198
409 1 0.599857 9.92965 13.5216
410 1 2.36922 8.16276 13.533
411 1 5.03798 9.08197 10.809
412 1 1.42138 7.2553 12.6243
413 1 1.50715 10.8286 12.6252
414 1 5.05894 12.6336 10.8463
415 1 5.07322 10.8636 12.5733
416 1 0.598069 11.7622 11.6923
417 1 0.595425 13.5788 13.4741
418 1 3.27748 12.616 12.6352
419 1 3.24706 10.8683 10.7978
420 1 2.38916 11.7597 13.5262
421 1 1.51438 12.669 10.771
422 1 2.41269 13.5257 11.6949
423 1 4.13396 11.7205 11.6907
424 1 4.17656 13.5387 13.4914
425 1 4.21239 8.15794 15.3106
426 1 1.48646 9.04762 14.3835
427 1 2.37159 9.98298 15.3151
428 1 0.642676 8.1699 15.3174
429 1 3.26958 9.06577 16.2321
430 1 5.06746 9.05131 14.3631
431 1 1.49464 7.23417 16.2137
432 1 5.10264 7.27516 16.1942
433 1 3.28728 7.24851 14.393
434 1 2.42551 8.11619 17.1213
435 1 0.654891 9.90956 17.0996
436 1 3.32237 10.8162 14.4331
437 1 5.06883 10.8333 16.2164
438 1 1.477 10.8386 16.2115
439 1 4.21468 11.706 15.2808
440 1 2.32663 13.5194 15.3166
441 1 1.51452 12.6144 14.4167
442 1 0.621193 11.7385 15.2639
443 1 3.28736 12.6003 16.1868
444 1 5.12182 12.6171 14.361
445 1 0.599099 13.5515 17.0501
446 1 4.13624 13.5067 17.0735
447 1 4.18874 9.96983 17.1392
448 1 1.52422 7.23848 19.7736
449 1 4.18971 8.16358 18.8663
450 1 1.54424 9.00514 17.945
451 1 2.38136 9.95251 18.8629
452 1 0.62382 8.16729 18.8798
453 1 3.26455 9.07702 19.7649
454 1 5.07119 9.04909 17.9882
455 1 3.30118 7.25585 17.9964
456 1 5.02626 7.29226 19.7601
457 1 2.38656 11.7688 17.093
458 1 5.0024 10.879 19.8067
459 1 1.47947 10.845 19.7856
460 1 3.268 10.8564 18.0051
461 1 5.04196 12.6132 17.9676
462 1 2.37986 13.4656 18.8784
463 1 4.17981 11.734 18.8516
464 1 1.4622 12.6375 17.9343
465 1 0.565114 11.7694 18.9003
466 1 3.29979 12.5982 19.7716
467 1 2.46155 8.15904 20.6249
468 1 0.588178 9.93072 20.6475
469 1 4.13674 9.91627 20.684
470 1 4.21607 13.5192 20.5649
471 1 2.33355 11.7763 20.6664
472 1 0.615347 13.5842 20.6233
473 2 3.26314 19.6584 -23.28
474 1 3.65669 16.0853 -21.5657
475 1 2.72012 15.0922 -21.4165
476 1 4.5998 17.0119 -21.7158
477 2 5.04436 14.7243 -20.8928
478 1 1.56368 15.2556 -20.6072
479 1 0.98763 16.5584 -20.461
480 1 5.2729 15.5046 -20.1115
481 1 0.406999 17.7847 -20.5666
482 1 0.389296 20.1781 -21.123
483 1 1.78514 20.2344 -21.2683
484 1 5.26402 19.3594 -21.6103
485 1 4.88072 20.5679 -22.0815
486 1 3.63233 20.6761 -22.9486
487 2 3.77583 21.2711 -23.782
488 1 2.61349 21.2935 -22.0633
489 1 5.62956 17.9863 -21.5436
490 2 3.29331 16.0789 -19.5466
491 1 4.42591 16.1728 -19.4056
492 2 4.72194 16.9458 -18.6925
493 1 0.608366 21.384 -13.2517
494 1 4.83755 19.4145 -15.241
495 2 4.44247 21.051 -14.5145
496 2 3.9133 19.5928 -15.8844
497 1 4.76876 19.4261 -13.8263
498 1 3.50837 19.5574 -13.2394
499 1 2.5065 15.5555 -11.844
500 1 4.50377 16.7019 -12.7207
501 1 3.72247 15.5679 -12.47
502 1 1.70496 14.6273 -11.3699
503 1 4.39926 14.3127 -12.6347
504 2 2.94048 17.3342 -11.7134
505 2 0.680371 14.8672 -10.8528
506 1 4.31225 19.1603 -2.02434
507 1 0.0310589 18.9572 -2.2105
508 1 2.30048 19.3177 -12.5927
509 1 0.907068 18.0609 -11.2403
510 1 1.09083 20.0671 -12.6062
511 1 2.12972 18.0998 -11.87
512 2 1.51931 21.1317 -10.7789
513 1 2.92831 19.1994 -2.34918
514 2 2.62432 19.3864 -10.5382
515 2 0.664877 14.6842 -8.00597
516 2 2.18808 19.1612 -10.0016
517 1 0.527891 15.6659 -7.56793
518 2 1.39309 16.2726 -7.78546
519 2 3.79771 17.724 -7.41669
520 1 2.2734 17.9119 -2.65906
521 1 4.98348 17.9856 -1.96493
522 2 3.99149 21.0152 -7.46001
523 1 3.74358 17.958 -6.33037
524 1 2.21328 20.4002 -2.07396
525 1 4.29394 14.3906 -5.38871
526 1 0.362858 15.4252 -6.002
527 1 4.29295 16.8542 -5.47525
528 1 3.6153 15.6104 -5.37759
529 1 2.22969 15.5275 -5.4148
530 1 1.10722 16.6669 -5.21018
531 2 1.32395 16.7441 -4.14139
532 2 5.72159 17.6493 -4.06636
533 2 0.21839 20.069 -10.65
534 1 0.392314 17.9062 -5.61805
535 1 4.3703 19.4759 -6.0747
536 1 2.50621 18.9466 -6.05217
537 1 3.02925 20.3393 -6.05704
538 1 1.13679 19.0014 -5.93215
539 1 0.611521 20.3496 -5.8837
540 1 1.80669 21.1938 -6.02903
541 1 0.201555 16.5781 -2.51398
542 1 1.03744 15.3976 -2.04187
543 1 2.38193 15.4165 -2.11874
544 1 2.99053 16.6439 -2.43534
545 1 4.37963 16.734 -2.06036
546 1 1.54167 16.1565 0.0947115
547 1 5.10604 16.1646 0.0784868
548 1 5.17509 15.6394 -1.38635
549 1 0.800839 17.8364 -2.68762
550 1 3.32629 18.0085 0.10866
551 1 0.791985 20.3631 -2.11579
552 1 5.21021 19.8843 0.0500958
553 1 1.59159 19.6657 0.114943
554 1 5.05762 20.326 -1.41468
555 1 0.100764 19.4508 -11.5348
556 1 3.37897 14.3296 -0.0385444
557 1 0.574334 15.2834 0.944352
558 1 2.40928 17.0756 0.955406
559 1 3.30257 16.1924 1.84419
560 1 4.1893 15.2938 0.892299
561 1 2.41409 15.3221 2.7003
562 1 4.14764 17.0315 2.75008
563 1 0.574548 17.0511 2.71693
564 1 5.13487 14.4137 1.77038
565 1 1.53633 14.427 1.87063
566 1 5.04759 16.1324 3.66862
567 1 3.29516 14.3723 3.58366
568 1 1.51047 16.179 3.62072
569 1 5.12912 17.9441 1.82257
570 1 1.44517 17.9548 1.83165
571 1 3.31683 19.7457 1.84909
572 1 4.33095 18.8858 0.976225
573 1 0.522626 18.8088 0.878388
574 1 2.45611 20.588 0.907682
575 1 4.19417 20.7063 2.74267
576 1 0.628394 20.6428 2.74412
577 1 2.38208 18.8576 2.73923
578 1 1.53602 19.746 3.66514
579 1 5.11942 19.8117 3.60895
580 1 5.03835 14.3958 5.41035
581 1 1.52382 14.3893 5.40017
582 1 4.1306 17.1036 6.31007
583 1 3.26612 16.1686 5.41483
584 1 4.16823 15.263 4.54849
585 1 0.583556 17.1193 6.30303
586 1 2.34796 17.0842 4.51402
587 1 0.62631 15.2718 4.51224
588 1 2.40534 15.3017 6.33065
589 1 3.26412 17.9316 3.59962
590 1 5.10431 17.9831 5.38605
591 1 1.48142 17.9428 5.39229
592 1 4.19538 20.6815 6.36249
593 1 3.31305 19.7615 5.46724
594 1 4.1835 18.8744 4.47559
595 1 0.612791 20.6143 6.29129
596 1 2.4348 20.6611 4.53184
597 1 0.615788 18.8629 4.54358
598 1 2.38644 18.8591 6.30018
599 1 4.21103 17.0769 9.91376
600 1 3.30486 16.1755 9.02142
601 1 4.18587 15.2697 8.11137
602 1 0.571067 17.1161 9.88472
603 1 2.41397 17.0906 8.08959
604 1 2.35638 15.2768 9.9272
605 1 0.582694 15.3415 8.13218
606 1 1.46442 16.1905 7.18926
607 1 5.0595 16.2097 7.19242
608 1 5.0724 14.4195 9.03727
609 1 3.27858 14.4306 7.22253
610 1 1.4804 14.3958 8.96673
611 1 5.10863 17.9714 9.04163
612 1 1.53082 17.8972 8.97287
613 1 3.30285 17.9732 7.18161
614 1 5.06771 19.7814 7.24298
615 1 4.19374 20.6572 9.89619
616 1 3.30767 19.7611 8.99169
617 1 4.23117 18.8823 8.10915
618 1 0.598627 20.6332 9.88784
619 1 2.38587 20.6448 8.14257
620 1 2.38698 18.8547 9.90285
621 1 0.598376 18.8301 8.09367
622 1 1.49276 19.761 7.249
623 1 5.0741 14.4475 12.551
624 1 1.53549 14.415 12.5789
625 1 5.0919 16.1967 10.8042
626 1 2.41074 15.2724 13.4857
627 1 0.65626 17.1101 13.5135
628 1 1.45556 16.2233 10.783
629 1 3.31949 16.2081 12.589
630 1 4.21267 15.3517 11.6762
631 1 0.587871 15.3022 11.7168
632 1 2.40343 17.1077 11.6861
633 1 4.1766 17.1064 13.5125
634 1 3.29338 14.4287 10.8209
635 1 3.31504 17.9986 10.7703
636 1 0.583735 18.882 11.7408
637 1 1.52938 17.9915 12.6102
638 1 5.07172 19.7674 10.8236
639 1 1.50065 19.7276 10.7955
640 1 2.37966 20.681 11.6689
641 1 2.41081 18.8744 13.5284
642 1 4.18526 20.682 13.4682
643 1 3.28147 19.7815 12.6209
644 1 4.16347 18.898 11.6745
645 1 0.574491 20.6455 13.478
646 1 5.0051 17.9864 12.6101
647 1 4.20058 15.2442 15.2966
648 1 2.39981 17.0344 15.3296
649 1 1.54052 16.2106 14.4086
650 1 0.636165 15.3696 15.2705
651 1 3.2949 16.1604 16.1821
652 1 5.03685 16.1726 14.4124
653 1 1.44209 14.4293 16.1905
654 1 3.29372 14.3929 14.4149
655 1 5.01087 14.3617 16.1764
656 1 4.20777 17.0648 17.0741
657 1 5.06993 17.9733 16.184
658 1 1.50618 17.9653 16.211
659 1 3.28415 17.9924 14.4305
660 1 4.18453 18.8701 15.2804
661 1 2.37245 20.6208 15.2216
662 1 0.64175 18.8462 15.2905
663 1 1.50757 19.7266 14.3597
664 1 3.33554 19.7553 16.1504
665 1 5.05712 19.7531 14.3604
666 1 0.539742 20.6105 17.0396
667 1 2.3589 15.316 17.0559
668 1 0.646284 17.0773 17.0958
669 1 1.49021 14.4387 19.7305
670 1 4.20261 15.3151 18.782
671 1 2.38843 17.0629 18.886
672 1 1.52989 16.2289 17.9817
673 1 0.624906 15.2909 18.8573
674 1 3.26955 16.1713 19.7523
675 1 5.09306 16.212 17.9772
676 1 3.31372 14.367 17.956
677 1 5.09114 14.4136 19.6963
678 1 4.15099 20.6539 17.0933
679 1 2.41771 18.9023 17.0524
680 1 3.28687 17.9664 17.9118
681 1 1.50365 17.966 19.7639
682 1 5.06407 17.954 19.7524
683 1 3.24469 19.7781 19.7298
684 1 4.18706 18.884 18.8896
685 1 1.48406 19.757 17.9186
686 1 5.08383 19.771 17.9811
687 1 2.32279 20.6448 18.8134
688 1 0.589567 18.8258 18.8147
689 1 2.41476 15.2417 20.625
690 1 4.13332 17.0982 20.6013
691 1 0.565058 17.1315 20.6593
692 1 0.614823 20.6052 20.6172
693 1 4.1666 20.647 20.5627
694 1 2.33556 18.907 20.6122
695 1 1.71048 23.7782 -24.8216
696 2 1.72873 23.6956 -25.8703
697 1 1.86002 22.5601 -24.118
698 2 2.15152 21.7514 -24.7154
699 1 1.46386 24.9571 -24.0851
700 2 1.06057 26.0778 -14.297
701 1 3.00113 26.6923 -13.7678
702 2 4.95829 21.9024 -26.402
703 2 3.43384 25.7389 -23.8666
704 1 1.58326 22.1612 -22.8078
705 1 0.660241 24.6719 -20.9448
706 2 3.14258 21.937 -21.3107
707 1 0.382578 22.4443 -22.0108
708 2 1.00518 24.197 -20.0016
709 2 4.67886 26.588 -23.1167
710 1 2.45035 25.5875 -23.3474
711 1 2.27622 26.2728 -22.0854
712 1 4.56401 27.2512 -22.2701
713 1 3.20071 27.3001 -21.7837
714 1 1.11244 26.0391 -21.2055
715 2 1.86486 26.7386 -15.7204
716 1 0.528038 27.2762 -20.6826
717 1 2.64505 28.4365 -21.0883
718 1 1.23091 28.4917 -20.816
719 1 0.100307 25.2091 -23.7238
720 2 1.30901 21.7393 -14.0295
721 1 5.02866 21.9532 -14.2414
722 1 4.61672 24.5379 -13.8151
723 2 4.56832 22.9035 -14.5446
724 2 3.85606 25.6107 -15.6492
725 1 1.09489 28.3326 -14.2952
726 1 4.07754 27.9281 -13.4599
727 1 1.74198 26.8851 -14.6268
728 1 4.91026 26.9675 -14.3122
729 1 4.05286 25.7288 -14.5648
730 2 5.452 21.4707 -21.8031
731 1 3.742 23.6843 -13.1674
732 2 3.4089 28.4228 -16.4022
733 2 5.60977 24.2639 -25.3654
734 1 0.96066 22.0736 -10.9399
735 1 0.466936 22.4362 -12.2117
736 2 2.3289 24.3293 -11.4375
737 1 0.374921 23.8426 -12.4333
738 1 1.42347 24.6789 -11.9208
739 1 3.1641 22.8376 -12.3425
740 2 4.10231 26.19 -11.4289
741 2 4.51066 26.0591 -10.8139
742 2 1.26345 25.7601 -11.9479
743 2 1.25624 27.4457 -12.1437
744 2 2.71325 26.2703 -12.8403
745 1 1.55122 28.2615 -12.7997
746 2 3.49544 27.8461 -11.0907
747 1 0.630935 22.7868 -9.74201
748 2 0.964691 22.4397 -8.82462
749 1 2.20599 23.3218 -7.2018
750 1 3.69533 23.2295 -7.70434
751 2 3.66514 23.1439 -8.84808
752 1 4.39055 21.9545 -7.12818
753 1 1.47804 24.559 -7.74249
754 1 4.46522 24.5326 -7.35719
755 2 1.44391 24.5541 -8.81738
756 2 4.80373 25.0395 -8.33445
757 1 0.384686 25.8457 -7.47561
758 2 0.559143 26.6014 -8.20115
759 1 2.20314 25.5792 -6.69163
760 1 1.60046 22.5745 -6.23204
761 1 0.402667 23.1375 -5.61856
762 1 0.324525 23.5188 -4.24901
763 1 5.54859 26.2231 -5.13667
764 1 3.56886 25.4527 -6.50803
765 1 1.16482 26.5611 -6.14962
766 2 5.1268 28.1313 -3.33867
767 2 3.58037 27.0406 -5.11874
768 1 0.657206 27.6369 -5.55608
769 1 4.20364 26.3104 -5.58249
770 2 3.57255 27.6497 -3.57493
771 1 4.32004 21.6344 -1.31726
772 1 2.70683 21.6425 -1.49096
773 1 5.13505 23.2569 0.113114
774 1 5.03072 22.9741 -1.35043
775 1 1.6697 23.2269 0.0907334
776 1 2.13076 23.0386 -1.25356
777 1 2.82544 24.1278 -1.85169
778 1 4.21707 24.1746 -1.74778
779 1 3.32637 21.5002 0.0690275
780 1 4.93218 27.9313 -2.30213
781 1 0.714042 25.1332 -2.41143
782 1 4.20875 26.5662 -2.02573
783 1 5.23885 26.917 0.000805964
784 1 4.91045 25.3888 -1.68339
785 1 1.34026 27.0127 0.088564
786 1 3.33964 25.0959 0.0715308
787 1 0.823065 27.5082 -1.31521
788 1 2.83672 26.5803 -2.20451
789 1 2.06075 27.8058 -2.06828
790 1 2.10558 25.3171 -2.22411
791 2 2.70839 22.105 -11.6543
792 1 0.0941548 23.8463 -2.88616
793 2 3.4064 27.868 -10.3641
794 1 2.4419 24.1667 0.939432
795 1 0.614476 22.374 0.909232
796 1 4.20315 22.4251 0.933726
797 1 3.33542 23.3004 1.87406
798 1 2.3816 22.4097 2.72637
799 1 4.22371 24.1882 2.75159
800 1 0.59026 24.1584 2.71937
801 1 5.14393 21.5916 1.8398
802 1 1.52606 21.5108 1.80914
803 1 1.53465 23.3507 3.63229
804 1 1.51726 25.0497 1.8758
805 1 5.06882 25.0504 1.80874
806 1 3.30242 26.8537 1.81079
807 1 4.25218 26.0508 0.848115
808 1 2.35639 27.7548 0.919237
809 1 0.647163 25.9569 1.02195
810 1 4.2335 27.722 2.76729
811 1 0.649094 27.7253 2.80327
812 1 2.4424 25.9305 2.72037
813 1 5.13224 26.8337 3.6747
814 1 3.29381 21.5367 3.6397
815 1 5.14367 23.3098 3.64246
816 1 4.1823 24.2087 6.36182
817 1 4.19988 22.4526 4.51594
818 1 3.32762 23.3252 5.43268
819 1 0.615737 22.4076 4.53561
820 1 0.620103 24.1367 6.33141
821 1 2.39002 22.4364 6.30943
822 1 2.44728 24.1962 4.5233
823 1 1.51873 21.5738 5.41435
824 1 5.09783 21.556 5.44222
825 1 1.54659 26.8395 3.6612
826 1 3.32688 25.101 3.66226
827 1 5.12496 25.0703 5.44961
828 1 1.55673 25.0527 5.45574
829 1 3.33909 26.8921 5.43105
830 1 4.22031 26.0107 4.60018
831 1 4.23075 27.7917 6.30069
832 1 2.44857 27.7632 4.56685
833 1 2.43803 26.0092 6.35212
834 1 0.619895 27.7674 6.30841
835 1 0.609509 25.9374 4.53071
836 1 1.51608 21.5305 9.07002
837 1 3.24182 23.3199 9.05454
838 1 4.16454 24.2292 9.93733
839 1 4.18627 22.4833 8.11828
840 1 0.652204 24.2327 9.91689
841 1 2.36873 22.446 9.91872
842 1 0.605523 22.3676 8.11298
843 1 1.50372 23.2893 7.22697
844 1 2.40986 24.1895 8.12776
845 1 5.09531 23.3044 7.2275
846 1 5.07347 21.5674 9.03359
847 1 3.29158 21.5661 7.24435
848 1 5.0788 25.1154 9.01249
849 1 3.29319 25.1131 7.23504
850 1 1.55907 25.1101 9.0171
851 1 3.26015 26.8912 9.01461
852 1 4.18132 27.7286 9.91885
853 1 4.16626 26.0102 8.13995
854 1 2.37063 26.0171 9.8993
855 1 0.622072 27.792 9.86695
856 1 2.39863 27.7914 8.11055
857 1 1.53628 26.9099 7.23357
858 1 0.624667 25.9857 8.06753
859 1 5.09386 26.9134 7.23235
860 1 3.24374 21.5523 10.8104
861 1 4.14042 22.4403 11.7005
862 1 3.22609 23.3655 12.6109
863 1 2.41907 24.2424 11.7106
864 1 1.53798 23.3431 10.7836
865 1 4.17061 24.2407 13.5102
866 1 0.63355 24.1959 13.4944
867 1 2.37001 22.4414 13.5054
868 1 5.00498 23.3251 10.7791
869 1 0.609023 22.4466 11.6728
870 1 5.03092 21.5779 12.6054
871 1 1.46656 21.5282 12.5897
872 1 0.580102 27.7476 13.482
873 1 1.53711 25.1252 12.5629
874 1 1.49137 26.927 10.8445
875 1 0.614135 26.0217 11.7661
876 1 4.14297 26.0111 11.7157
877 1 5.05767 26.8723 10.8245
878 1 3.28446 25.1577 10.8102
879 1 3.30836 26.9427 12.5873
880 1 2.33654 27.7808 11.6861
881 1 4.17251 27.8038 13.4796
882 1 5.08089 25.1058 12.5652
883 1 2.39288 26.0287 13.5064
884 1 4.16364 22.4416 15.3099
885 1 0.607707 22.3841 15.2525
886 1 1.52885 23.3112 14.428
887 1 2.43466 24.2071 15.2993
888 1 3.26394 23.3174 16.21
889 1 5.03829 23.3573 14.3878
890 1 1.50011 21.4952 16.1823
891 1 3.25739 21.5795 14.3818
892 1 5.03743 21.507 16.2129
893 1 1.52186 25.1025 16.1754
894 1 3.2938 25.1642 14.4453
895 1 5.06328 25.151 16.1905
896 1 4.1483 26.0366 15.3105
897 1 2.38541 27.8042 15.2536
898 1 1.50557 26.8844 14.3453
899 1 0.648664 25.9875 15.2633
900 1 3.26913 26.8805 16.2401
901 1 5.04874 26.9589 14.3827
902 1 0.586044 24.17 17.0136
903 1 4.16825 24.2106 17.0909
904 1 2.36166 22.4229 17.0719
905 1 4.14591 22.4405 18.858
906 1 0.562555 22.4023 18.8152
907 1 1.45644 23.2947 17.9042
908 1 2.38509 24.1925 18.8181
909 1 3.28466 23.3453 19.6911
910 1 5.0824 23.2927 17.9844
911 1 1.52147 21.5306 19.751
912 1 5.03124 21.5683 19.7428
913 1 3.27703 21.5506 17.9473
914 1 4.22062 27.788 17.0704
915 1 2.38037 25.9891 17.1168
916 1 0.60497 27.827 17.0844
917 1 5.04952 25.1297 19.7169
918 1 3.27232 25.1 17.9894
919 1 1.49819 25.0635 19.7108
920 1 4.12509 26.0029 18.8488
921 1 2.38505 27.7653 18.8239
922 1 0.585665 25.9424 18.8794
923 1 1.49708 26.8801 18.0035
924 1 5.06847 26.9401 17.9679
925 1 3.26968 26.8736 19.772
926 1 4.24282 24.1622 20.5829
927 1 2.40442 22.4258 20.546
928 1 0.630903 24.1423 20.5546
929 1 2.38998 25.922 20.6073
930 1 4.17731 27.7101 20.5648
931 1 0.600088 27.7132 20.614
932 1 8.8053 0.883902 -21.9452
933 1 10.175 0.729312 -21.6189
934 1 8.13471 2.05347 -21.6604
935 1 10.9079 1.80741 -21.101
936 1 6.85883 2.30678 -22.0848
937 1 10.2097 2.98878 -20.7224
938 1 8.82811 3.12354 -21.0081
939 1 6.10643 3.44393 -21.7358
940 2 6.73956 0.754504 -20.4807
941 1 6.92305 4.55538 -21.4204
942 1 8.18926 4.35805 -20.7629
943 1 7.24871 6.92064 -20.8625
944 1 6.43407 5.95768 -21.4942
945 1 10.9893 4.01517 -20.099
946 1 8.31454 6.76807 -19.9741
947 1 10.3117 5.23626 -19.6008
948 2 8.95552 1.92927 -16.9403
949 1 8.78385 5.36419 -19.6834
950 1 10.9929 6.30941 -19.0004
951 2 8.44296 5.03888 -18.7299
952 1 9.1842 0.221553 -15.5161
953 2 10.7778 0.244102 -14.5087
954 2 9.16946 2.73249 -13.4623
955 2 8.06655 3.35963 -15.463
956 1 8.66777 1.44318 -15.9542
957 2 8.48263 1.15277 -13.4803
958 1 7.87093 2.35661 -15.135
959 2 6.76251 2.23065 -15.2911
960 2 6.61958 0.460619 -14.7023
961 1 8.27946 2.2011 -13.6588
962 2 6.45105 3.15577 -13.5482
963 2 9.40498 6.77574 -15.2081
964 2 9.52501 6.15724 -15.7376
965 1 5.78685 0.476342 -20.9725
966 2 6.65794 1.5387 -11.0516
967 1 6.42811 1.44441 -12.0988
968 1 7.02693 0.076781 -12.5533
969 1 8.747 7.10378 -5.50868
970 2 7.37612 3.46284 -10.7587
971 2 10.6008 0.470307 -11.771
972 1 7.11496 2.65469 -12.7749
973 2 5.84244 3.61619 -11.4002
974 1 7.66615 3.65784 -11.7938
975 1 8.57123 4.70691 -11.9968
976 1 8.9256 5.56292 -10.9505
977 1 8.44077 5.34968 -9.64965
978 1 9.81582 6.66543 -11.0731
979 2 10.1095 6.86353 -12.0816
980 2 11.3515 6.21206 -10.2415
981 2 11.1884 4.86536 -11.9674
982 2 10.1792 3.07691 -7.21256