LAMMPS data file from restart file: timestep = 1, procs = 1

3132 atoms

2 atom types

0 20.5103 xlo xhi
0 21.439264 ylo yhi
0 71.34 zlo zhi

Masses

1 12.01
2 1.0079

Atoms

1 1 0.8918 7e-05 32.78939
2 1 4.4588 7e-05 32.78939
3 1 8.0258 7e-05 32.78939
4 1 11.5928 7e-05 32.78939
5 1 15.1598 7e-05 32.78939
6 1 18.7268 7e-05 32.78939
7 1 0.0 1.261195 35.311569
8 1 1.7835 7e-05 34.050444
9 1 0.8918 0.00014 35.311569
10 1 0.8918 2.52232 35.31164
11 1 2.6752 1.261195 34.050515
12 1 3.567 1.261195 35.311569
13 1 5.3505 7e-05 34.050444
14 1 4.4588 0.00014 35.311569
15 1 4.4588 2.52232 35.31164
16 1 6.2422 1.261195 34.050515
17 1 7.134 1.261195 35.311569
18 1 8.9175 7e-05 34.050444
19 1 8.0258 0.00014 35.311569
20 1 8.0258 2.52232 35.31164
21 1 9.8092 1.261195 34.050515
22 1 10.701 1.261195 35.311569
23 1 12.4845 7e-05 34.050444
24 1 11.5928 0.00014 35.311569
25 1 11.5928 2.52232 35.31164
26 1 13.3763 1.261195 34.050515
27 1 14.268 1.261195 35.311569
28 1 16.0515 7e-05 34.050444
29 1 15.1598 0.00014 35.311569
30 1 15.1598 2.52232 35.31164
31 1 16.9433 1.261195 34.050515
32 1 17.835 1.261195 35.311569
33 1 19.6185 7e-05 34.050444
34 1 18.7268 0.00014 35.311569
35 1 18.7268 2.52232 35.31164
36 1 20.5103 1.261195 34.050515
37 1 0.8918 0.0 27.74482
38 1 4.4588 0.0 27.74482
39 1 8.0258 0.0 27.74482
40 1 11.5928 0.0 27.74482
41 1 15.1598 0.0 27.74482
42 1 18.7268 0.0 27.74482
43 1 0.0 1.261195 30.267069
44 1 1.7835 7e-05 29.005944
45 1 1.7835 7e-05 31.528194
46 1 0.8918 0.00014 30.267069
47 1 0.8918 2.52232 30.26714
48 1 2.6752 1.261195 29.006015
49 1 2.6752 1.261265 31.528194
50 1 3.567 1.261195 30.267069
51 1 5.3505 7e-05 29.005944
52 1 5.3505 7e-05 31.528194
53 1 4.4588 0.00014 30.267069
54 1 4.4588 2.52232 30.26714
55 1 6.2422 1.261195 29.006015
56 1 6.2422 1.261265 31.528194
57 1 7.134 1.261195 30.267069
58 1 8.9175 7e-05 29.005944
59 1 8.9175 7e-05 31.528194
60 1 8.0258 0.00014 30.267069
61 1 8.0258 2.52232 30.26714
62 1 9.8092 1.261195 29.006015
63 1 9.8092 1.261265 31.528194
64 1 10.701 1.261195 30.267069
65 1 12.4845 7e-05 29.005944
66 1 12.4845 7e-05 31.528194
67 1 11.5928 0.00014 30.267069
68 1 11.5928 2.52232 30.26714
69 1 13.3763 1.261195 29.006015
70 1 13.3763 1.261265 31.528194
71 1 14.268 1.261195 30.267069
72 1 16.0515 7e-05 29.005944
73 1 16.0515 7e-05 31.528194
74 1 15.1598 0.00014 30.267069
75 1 15.1598 2.52232 30.26714
76 1 16.9433 1.261195 29.006015
77 1 16.9433 1.261265 31.528194
78 1 17.835 1.261195 30.267069
79 1 19.6185 7e-05 29.005944
80 1 19.6185 7e-05 31.528194
81 1 18.7268 0.00014 30.267069
82 1 18.7268 2.52232 30.26714
83 1 20.5103 1.261195 29.006015
84 1 20.5103 1.261265 31.528194
85 1 0.0 1.261195 32.789319
86 1 0.0 3.783445 32.789319
87 1 1.7835 2.52232 31.528194
88 1 1.7835 2.52232 34.050444
89 1 0.8918 2.52239 32.789319
90 1 0.8918 5.04457 32.78939
91 1 2.6752 3.783445 31.528265
92 1 2.6752 3.783515 34.050444
93 1 3.567 1.261195 32.789319
94 1 3.567 3.783445 32.789319
95 1 5.3505 2.52232 31.528194
96 1 5.3505 2.52232 34.050444
97 1 4.4588 2.52239 32.789319
98 1 4.4588 5.04457 32.78939
99 1 6.2422 3.783445 31.528265
100 1 6.2422 3.783515 34.050444
101 1 7.134 1.261195 32.789319
102 1 7.134 3.783445 32.789319
103 1 8.9175 2.52232 31.528194
104 1 8.9175 2.52232 34.050444
105 1 8.0258 2.52239 32.789319
106 1 8.0258 5.04457 32.78939
107 1 9.8092 3.783445 31.528265
108 1 9.8092 3.783515 34.050444
109 1 10.701 1.261195 32.789319
110 1 10.701 3.783445 32.789319
111 1 12.4845 2.52232 31.528194
112 1 12.4845 2.52232 34.050444
113 1 11.5928 2.52239 32.789319
114 1 11.5928 5.04457 32.78939
115 1 13.3763 3.783445 31.528265
116 1 13.3763 3.783515 34.050444
117 1 14.268 1.261195 32.789319
118 1 14.268 3.783445 32.789319
119 1 16.0515 2.52232 31.528194
120 1 16.0515 2.52232 34.050444
121 1 15.1598 2.52239 32.789319
122 1 15.1598 5.04457 32.78939
123 1 16.9433 3.783445 31.528265
124 1 16.9433 3.783515 34.050444
125 1 17.835 1.261195 32.789319
126 1 17.835 3.783445 32.789319
127 1 19.6185 2.52232 31.528194
128 1 19.6185 2.52232 34.050444
129 1 18.7268 2.52239 32.789319
130 1 18.7268 5.04457 32.78939
131 1 20.5103 3.783445 31.528265
132 1 20.5103 3.783515 34.050444
133 1 0.0 3.783445 35.311569
134 1 0.0 6.305695 35.311569
135 1 1.7835 5.04457 34.050444
136 1 0.8918 5.04464 35.311569
137 1 0.8918 7.566819 35.31164
138 1 2.6752 6.305695 34.050515
139 1 3.567 3.783445 35.311569
140 1 3.567 6.305695 35.311569
141 1 5.3505 5.04457 34.050444
142 1 4.4588 5.04464 35.311569
143 1 4.4588 7.566819 35.31164
144 1 6.2422 6.305695 34.050515
145 1 7.134 3.783445 35.311569
146 1 7.134 6.305695 35.311569
147 1 8.9175 5.04457 34.050444
148 1 8.0258 5.04464 35.311569
149 1 8.0258 7.566819 35.31164
150 1 9.8092 6.305695 34.050515
151 1 10.701 3.783445 35.311569
152 1 10.701 6.305695 35.311569
153 1 12.4845 5.04457 34.050444
154 1 11.5928 5.04464 35.311569
155 1 11.5928 7.566819 35.31164
156 1 13.3763 6.305695 34.050515
157 1 14.268 3.783445 35.311569
158 1 14.268 6.305695 35.311569
159 1 16.0515 5.04457 34.050444
160 1 15.1598 5.04464 35.311569
161 1 15.1598 7.566819 35.31164
162 1 16.9433 6.305695 34.050515
163 1 17.835 3.783445 35.311569
164 1 17.835 6.305695 35.311569
165 1 19.6185 5.04457 34.050444
166 1 18.7268 5.04464 35.311569
167 1 18.7268 7.566819 35.31164
168 1 20.5103 6.305695 34.050515
169 1 0.8918 0.0 22.70032
170 1 4.4588 0.0 22.70032
171 1 8.0258 0.0 22.70032
172 1 11.5928 0.0 22.70032
173 1 15.1598 0.0 22.70032
174 1 18.7268 0.0 22.70032
175 1 0.0 1.261195 25.22257
176 1 1.7835 7e-05 23.961445
177 1 1.7835 7e-05 26.483695
178 1 0.8918 0.00014 25.22257
179 1 0.8918 2.522249 25.22257
180 1 2.6752 1.261195 23.961515
181 1 2.6752 1.261195 26.483624
182 1 3.567 1.261195 25.22257
183 1 5.3505 7e-05 23.961445
184 1 5.3505 7e-05 26.483695
185 1 4.4588 0.00014 25.22257
186 1 4.4588 2.522249 25.22257
187 1 6.2422 1.261195 23.961515
188 1 6.2422 1.261195 26.483624
189 1 7.134 1.261195 25.22257
190 1 8.9175 7e-05 23.961445
191 1 8.9175 7e-05 26.483695
192 1 8.0258 0.00014 25.22257
193 1 8.0258 2.522249 25.22257
194 1 9.8092 1.261195 23.961515
195 1 9.8092 1.261195 26.483624
196 1 10.701 1.261195 25.22257
197 1 12.4845 7e-05 23.961445
198 1 12.4845 7e-05 26.483695
199 1 11.5928 0.00014 25.22257
200 1 11.5928 2.522249 25.22257
201 1 13.3763 1.261195 23.961515
202 1 13.3763 1.261195 26.483624
203 1 14.268 1.261195 25.22257
204 1 16.0515 7e-05 23.961445
205 1 16.0515 7e-05 26.483695
206 1 15.1598 0.00014 25.22257
207 1 15.1598 2.522249 25.22257
208 1 16.9433 1.261195 23.961515
209 1 16.9433 1.261195 26.483624
210 1 17.835 1.261195 25.22257
211 1 19.6185 7e-05 23.961445
212 1 19.6185 7e-05 26.483695
213 1 18.7268 0.00014 25.22257
214 1 18.7268 2.522249 25.22257
215 1 20.5103 1.261195 23.961515
216 1 20.5103 1.261195 26.483624
217 1 0.0 1.261195 27.74482
218 1 0.0 3.783445 27.74482
219 1 1.7835 2.52232 26.483695
220 1 1.7835 2.52232 29.005944
221 1 0.8918 2.52239 27.74482
222 1 0.8918 5.04457 27.74489
223 1 2.6752 3.783445 26.483765
224 1 2.6752 3.783515 29.005944
225 1 3.567 1.261195 27.74482
226 1 3.567 3.783445 27.74482
227 1 5.3505 2.52232 26.483695
228 1 5.3505 2.52232 29.005944
229 1 4.4588 2.52239 27.74482
230 1 4.4588 5.04457 27.74489
231 1 6.2422 3.783445 26.483765
232 1 6.2422 3.783515 29.005944
233 1 7.134 1.261195 27.74482
234 1 7.134 3.783445 27.74482
235 1 8.9175 2.52232 26.483695
236 1 8.9175 2.52232 29.005944
237 1 8.0258 2.52239 27.74482
238 1 8.0258 5.04457 27.74489
239 1 9.8092 3.783445 26.483765
240 1 9.8092 3.783515 29.005944
241 1 10.701 1.261195 27.74482
242 1 10.701 3.783445 27.74482
243 1 12.4845 2.52232 26.483695
244 1 12.4845 2.52232 29.005944
245 1 11.5928 2.52239 27.74482
246 1 11.5928 5.04457 27.74489
247 1 13.3763 3.783445 26.483765
248 1 13.3763 3.783515 29.005944
249 1 14.268 1.261195 27.74482
250 1 14.268 3.783445 27.74482
251 1 16.0515 2.52232 26.483695
252 1 16.0515 2.52232 29.005944
253 1 15.1598 2.52239 27.74482
254 1 15.1598 5.04457 27.74489
255 1 16.9433 3.783445 26.483765
256 1 16.9433 3.783515 29.005944
257 1 17.835 1.261195 27.74482
258 1 17.835 3.783445 27.74482
259 1 19.6185 2.52232 26.483695
260 1 19.6185 2.52232 29.005944
261 1 18.7268 2.52239 27.74482
262 1 18.7268 5.04457 27.74489
263 1 20.5103 3.783445 26.483765
264 1 20.5103 3.783515 29.005944
265 1 0.0 3.783445 30.267069
266 1 0.0 6.305695 30.267069
267 1 1.7835 5.04457 29.005944
268 1 1.7835 5.04457 31.528194
269 1 0.8918 5.04464 30.267069
270 1 0.8918 7.566819 30.26714
271 1 2.6752 6.305695 29.006015
272 1 2.6752 6.305765 31.528194
273 1 3.567 3.783445 30.267069
274 1 3.567 6.305695 30.267069
275 1 5.3505 5.04457 29.005944
276 1 5.3505 5.04457 31.528194
277 1 4.4588 5.04464 30.267069
278 1 4.4588 7.566819 30.26714
279 1 6.2422 6.305695 29.006015
280 1 6.2422 6.305765 31.528194
281 1 7.134 3.783445 30.267069
282 1 7.134 6.305695 30.267069
283 1 8.9175 5.04457 29.005944
284 1 8.9175 5.04457 31.528194
285 1 8.0258 5.04464 30.267069
286 1 8.0258 7.566819 30.26714
287 1 9.8092 6.305695 29.006015
288 1 9.8092 6.305765 31.528194
289 1 10.701 3.783445 30.267069
290 1 10.701 6.305695 30.267069
291 1 12.4845 5.04457 29.005944
292 1 12.4845 5.04457 31.528194
293 1 11.5928 5.04464 30.267069
294 1 11.5928 7.566819 30.26714
295 1 13.3763 6.305695 29.006015
296 1 13.3763 6.305765 31.528194
297 1 14.268 3.783445 30.267069
298 1 14.268 6.305695 30.267069
299 1 16.0515 5.04457 29.005944
300 1 16.0515 5.04457 31.528194
301 1 15.1598 5.04464 30.267069
302 1 15.1598 7.566819 30.26714
303 1 16.9433 6.305695 29.006015
304 1 16.9433 6.305765 31.528194
305 1 17.835 3.783445 30.267069
306 1 17.835 6.305695 30.267069
307 1 19.6185 5.04457 29.005944
308 1 19.6185 5.04457 31.528194
309 1 18.7268 5.04464 30.267069
310 1 18.7268 7.566819 30.26714
311 1 20.5103 6.305695 29.006015
312 1 20.5103 6.305765 31.528194
313 1 0.0 6.305695 32.789319
314 1 0.0 8.827944 32.789319
315 1 1.7835 7.566819 31.528194
316 1 1.7835 7.566819 34.050444
317 1 0.8918 7.56689 32.789319
318 1 0.8918 10.089069 32.78939
319 1 2.6752 8.827944 31.528265
320 1 2.6752 8.828015 34.050444
321 1 3.567 6.305695 32.789319
322 1 3.567 8.827944 32.789319
323 1 5.3505 7.566819 31.528194
324 1 5.3505 7.566819 34.050444
325 1 4.4588 7.56689 32.789319
326 1 4.4588 10.089069 32.78939
327 1 6.2422 8.827944 31.528265
328 1 6.2422 8.828015 34.050444
329 1 7.134 6.305695 32.789319
330 1 7.134 8.827944 32.789319
331 1 8.9175 7.566819 31.528194
332 1 8.9175 7.566819 34.050444
333 1 8.0258 7.56689 32.789319
334 1 8.0258 10.089069 32.78939
335 1 9.8092 8.827944 31.528265
336 1 9.8092 8.828015 34.050444
337 1 10.701 6.305695 32.789319
338 1 10.701 8.827944 32.789319
339 1 12.4845 7.566819 31.528194
340 1 12.4845 7.566819 34.050444
341 1 11.5928 7.56689 32.789319
342 1 11.5928 10.089069 32.78939
343 1 13.3763 8.827944 31.528265
344 1 13.3763 8.828015 34.050444
345 1 14.268 6.305695 32.789319
346 1 14.268 8.827944 32.789319
347 1 16.0515 7.566819 31.528194
348 1 16.0515 7.566819 34.050444
349 1 15.1598 7.56689 32.789319
350 1 15.1598 10.089069 32.78939
351 1 16.9433 8.827944 31.528265
352 1 16.9433 8.828015 34.050444
353 1 17.835 6.305695 32.789319
354 1 17.835 8.827944 32.789319
355 1 19.6185 7.566819 31.528194
356 1 19.6185 7.566819 34.050444
357 1 18.7268 7.56689 32.789319
358 1 18.7268 10.089069 32.78939
359 1 20.5103 8.827944 31.528265
360 1 20.5103 8.828015 34.050444
361 1 0.0 8.827944 35.311569
362 1 0.0 11.350194 35.311569
363 1 1.7835 10.089069 34.050444
364 1 0.8918 10.08914 35.311569
365 1 0.8918 12.611319 35.31164
366 1 2.6752 11.350194 34.050515
367 1 3.567 8.827944 35.311569
368 1 3.567 11.350194 35.311569
369 1 5.3505 10.089069 34.050444
370 1 4.4588 10.08914 35.311569
371 1 4.4588 12.611319 35.31164
372 1 6.2422 11.350194 34.050515
373 1 7.134 8.827944 35.311569
374 1 7.134 11.350194 35.311569
375 1 8.9175 10.089069 34.050444
376 1 8.0258 10.08914 35.311569
377 1 8.0258 12.611319 35.31164
378 1 9.8092 11.350194 34.050515
379 1 10.701 8.827944 35.311569
380 1 10.701 11.350194 35.311569
381 1 12.4845 10.089069 34.050444
382 1 11.5928 10.08914 35.311569
383 1 11.5928 12.611319 35.31164
384 1 13.3763 11.350194 34.050515
385 1 14.268 8.827944 35.311569
386 1 14.268 11.350194 35.311569
387 1 16.0515 10.089069 34.050444
388 1 15.1598 10.08914 35.311569
389 1 15.1598 12.611319 35.31164
390 1 16.9433 11.350194 34.050515
391 1 17.835 8.827944 35.311569
392 1 17.835 11.350194 35.311569
393 1 19.6185 10.089069 34.050444
394 1 18.7268 10.08914 35.311569
395 1 18.7268 12.611319 35.31164
396 1 20.5103 11.350194 34.050515
397 1 0.8918 0.0 17.65582
398 1 4.4588 0.0 17.65582
399 1 8.0258 0.0 17.65582
400 1 11.5928 0.0 17.65582
401 1 15.1598 0.0 17.65582
402 1 18.7268 0.0 17.65582
403 1 0.0 1.261195 20.17807
404 1 1.7835 7e-05 18.916945
405 1 1.7835 7e-05 21.439195
406 1 0.8918 0.00014 20.17807
407 1 0.8918 2.522249 20.17807
408 1 2.6752 1.261195 18.917016
409 1 2.6752 1.261195 21.439124
410 1 3.567 1.261195 20.17807
411 1 5.3505 7e-05 18.916945
412 1 5.3505 7e-05 21.439195
413 1 4.4588 0.00014 20.17807
414 1 4.4588 2.522249 20.17807
415 1 6.2422 1.261195 18.917016
416 1 6.2422 1.261195 21.439124
417 1 7.134 1.261195 20.17807
418 1 8.9175 7e-05 18.916945
419 1 8.9175 7e-05 21.439195
420 1 8.0258 0.00014 20.17807
421 1 8.0258 2.522249 20.17807
422 1 9.8092 1.261195 18.917016
423 1 9.8092 1.261195 21.439124
424 1 10.701 1.261195 20.17807
425 1 12.4845 7e-05 18.916945
426 1 12.4845 7e-05 21.439195
427 1 11.5928 0.00014 20.17807
428 1 11.5928 2.522249 20.17807
429 1 13.3763 1.261195 18.917016
430 1 13.3763 1.261195 21.439124
431 1 14.268 1.261195 20.17807
432 1 16.0515 7e-05 18.916945
433 1 16.0515 7e-05 21.439195
434 1 15.1598 0.00014 20.17807
435 1 15.1598 2.522249 20.17807
436 1 16.9433 1.261195 18.917016
437 1 16.9433 1.261195 21.439124
438 1 17.835 1.261195 20.17807
439 1 19.6185 7e-05 18.916945
440 1 19.6185 7e-05 21.439195
441 1 18.7268 0.00014 20.17807
442 1 18.7268 2.522249 20.17807
443 1 20.5103 1.261195 18.917016
444 1 20.5103 1.261195 21.439124
445 1 0.0 1.261195 22.70032
446 1 0.0 3.783445 22.70032
447 1 1.7835 2.52232 21.439195
448 1 1.7835 2.52232 23.961445
449 1 0.8918 2.52239 22.70032
450 1 0.8918 5.044499 22.70032
451 1 2.6752 3.783445 21.439266
452 1 2.6752 3.783445 23.961374
453 1 3.567 1.261195 22.70032
454 1 3.567 3.783445 22.70032
455 1 5.3505 2.52232 21.439195
456 1 5.3505 2.52232 23.961445
457 1 4.4588 2.52239 22.70032
458 1 4.4588 5.044499 22.70032
459 1 6.2422 3.783445 21.439266
460 1 6.2422 3.783445 23.961374
461 1 7.134 1.261195 22.70032
462 1 7.134 3.783445 22.70032
463 1 8.9175 2.52232 21.439195
464 1 8.9175 2.52232 23.961445
465 1 8.0258 2.52239 22.70032
466 1 8.0258 5.044499 22.70032
467 1 9.8092 3.783445 21.439266
468 1 9.8092 3.783445 23.961374
469 1 10.701 1.261195 22.70032
470 1 10.701 3.783445 22.70032
471 1 12.4845 2.52232 21.439195
472 1 12.4845 2.52232 23.961445
473 1 11.5928 2.52239 22.70032
474 1 11.5928 5.044499 22.70032
475 1 13.3763 3.783445 21.439266
476 1 13.3763 3.783445 23.961374
477 1 14.268 1.261195 22.70032
478 1 14.268 3.783445 22.70032
479 1 16.0515 2.52232 21.439195
480 1 16.0515 2.52232 23.961445
481 1 15.1598 2.52239 22.70032
482 1 15.1598 5.044499 22.70032
483 1 16.9433 3.783445 21.439266
484 1 16.9433 3.783445 23.961374
485 1 17.835 1.261195 22.70032
486 1 17.835 3.783445 22.70032
487 1 19.6185 2.52232 21.439195
488 1 19.6185 2.52232 23.961445
489 1 18.7268 2.52239 22.70032
490 1 18.7268 5.044499 22.70032
491 1 20.5103 3.783445 21.439266
492 1 20.5103 3.783445 23.961374
493 1 0.0 3.783445 25.22257
494 1 0.0 6.305695 25.22257
495 1 1.7835 5.04457 23.961445
496 1 1.7835 5.04457 26.483695
497 1 0.8918 5.04464 25.22257
498 1 0.8918 7.566819 25.22264
499 1 2.6752 6.305695 23.961515
500 1 2.6752 6.305765 26.483695
501 1 3.567 3.783445 25.22257
502 1 3.567 6.305695 25.22257
503 1 5.3505 5.04457 23.961445
504 1 5.3505 5.04457 26.483695
505 1 4.4588 5.04464 25.22257
506 1 4.4588 7.566819 25.22264
507 1 6.2422 6.305695 23.961515
508 1 6.2422 6.305765 26.483695
509 1 7.134 3.783445 25.22257
510 1 7.134 6.305695 25.22257
511 1 8.9175 5.04457 23.961445
512 1 8.9175 5.04457 26.483695
513 1 8.0258 5.04464 25.22257
514 1 8.0258 7.566819 25.22264
515 1 9.8092 6.305695 23.961515
516 1 9.8092 6.305765 26.483695
517 1 10.701 3.783445 25.22257
518 1 10.701 6.305695 25.22257
519 1 12.4845 5.04457 23.961445
520 1 12.4845 5.04457 26.483695
521 1 11.5928 5.04464 25.22257
522 1 11.5928 7.566819 25.22264
523 1 13.3763 6.305695 23.961515
524 1 13.3763 6.305765 26.483695
525 1 14.268 3.783445 25.22257
526 1 14.268 6.305695 25.22257
527 1 16.0515 5.04457 23.961445
528 1 16.0515 5.04457 26.483695
529 1 15.1598 5.04464 25.22257
530 1 15.1598 7.566819 25.22264
531 1 16.9433 6.305695 23.961515
532 1 16.9433 6.305765 26.483695
533 1 17.835 3.783445 25.22257
534 1 17.835 6.305695 25.22257
535 1 19.6185 5.04457 23.961445
536 1 19.6185 5.04457 26.483695
537 1 18.7268 5.04464 25.22257
538 1 18.7268 7.566819 25.22264
539 1 20.5103 6.305695 23.961515
540 1 20.5103 6.305765 26.483695
541 1 0.0 6.305695 27.74482
542 1 0.0 8.827944 27.74482
543 1 1.7835 7.566819 26.483695
544 1 1.7835 7.566819 29.005944
545 1 0.8918 7.56689 27.74482
546 1 0.8918 10.089069 27.74489
547 1 2.6752 8.827944 26.483765
548 1 2.6752 8.828015 29.005944
549 1 3.567 6.305695 27.74482
550 1 3.567 8.827944 27.74482
551 1 5.3505 7.566819 26.483695
552 1 5.3505 7.566819 29.005944
553 1 4.4588 7.56689 27.74482
554 1 4.4588 10.089069 27.74489
555 1 6.2422 8.827944 26.483765
556 1 6.2422 8.828015 29.005944
557 1 7.134 6.305695 27.74482
558 1 7.134 8.827944 27.74482
559 1 8.9175 7.566819 26.483695
560 1 8.9175 7.566819 29.005944
561 1 8.0258 7.56689 27.74482
562 1 8.0258 10.089069 27.74489
563 1 9.8092 8.827944 26.483765
564 1 9.8092 8.828015 29.005944
565 1 10.701 6.305695 27.74482
566 1 10.701 8.827944 27.74482
567 1 12.4845 7.566819 26.483695
568 1 12.4845 7.566819 29.005944
569 1 11.5928 7.56689 27.74482
570 1 11.5928 10.089069 27.74489
571 1 13.3763 8.827944 26.483765
572 1 13.3763 8.828015 29.005944
573 1 14.268 6.305695 27.74482
574 1 14.268 8.827944 27.74482
575 1 16.0515 7.566819 26.483695
576 1 16.0515 7.566819 29.005944
577 1 15.1598 7.56689 27.74482
578 1 15.1598 10.089069 27.74489
579 1 16.9433 8.827944 26.483765
580 1 16.9433 8.828015 29.005944
581 1 17.835 6.305695 27.74482
582 1 17.835 8.827944 27.74482
583 1 19.6185 7.566819 26.483695
584 1 19.6185 7.566819 29.005944
585 1 18.7268 7.56689 27.74482
586 1 18.7268 10.089069 27.74489
587 1 20.5103 8.827944 26.483765
588 1 20.5103 8.828015 29.005944
589 1 0.0 8.827944 30.267069
590 1 0.0 11.350194 30.267069
591 1 1.7835 10.089069 29.005944
592 1 1.7835 10.089069 31.528194
593 1 0.8918 10.08914 30.267069
594 1 0.8918 12.611319 30.26714
595 1 2.6752 11.350194 29.006015
596 1 2.6752 11.350265 31.528194
597 1 3.567 8.827944 30.267069
598 1 3.567 11.350194 30.267069
599 1 5.3505 10.089069 29.005944
600 1 5.3505 10.089069 31.528194
601 1 4.4588 10.08914 30.267069
602 1 4.4588 12.611319 30.26714
603 1 6.2422 11.350194 29.006015
604 1 6.2422 11.350265 31.528194
605 1 7.134 8.827944 30.267069
606 1 7.134 11.350194 30.267069
607 1 8.9175 10.089069 29.005944
608 1 8.9175 10.089069 31.528194
609 1 8.0258 10.08914 30.267069
610 1 8.0258 12.611319 30.26714
611 1 9.8092 11.350194 29.006015
612 1 9.8092 11.350265 31.528194
613 1 10.701 8.827944 30.267069
614 1 10.701 11.350194 30.267069
615 1 12.4845 10.089069 29.005944
616 1 12.4845 10.089069 31.528194
617 1 11.5928 10.08914 30.267069
618 1 11.5928 12.611319 30.26714
619 1 13.3763 11.350194 29.006015
620 1 13.3763 11.350265 31.528194
621 1 14.268 8.827944 30.267069
622 1 14.268 11.350194 30.267069
623 1 16.0515 10.089069 29.005944
624 1 16.0515 10.089069 31.528194
625 1 15.1598 10.08914 30.267069
626 1 15.1598 12.611319 30.26714
627 1 16.9433 11.350194 29.006015
628 1 16.9433 11.350265 31.528194
629 1 17.835 8.827944 30.267069
630 1 17.835 11.350194 30.267069
631 1 19.6185 10.089069 29.005944
632 1 19.6185 10.089069 31.528194
633 1 18.7268 10.08914 30.267069
634 1 18.7268 12.611319 30.26714
635 1 20.5103 11.350194 29.006015
636 1 20.5103 11.350265 31.528194
637 1 0.0 11.350194 32.789319
638 1 0.0 13.872444 32.789319
639 1 1.7835 12.611319 31.528194
640 1 1.7835 12.611319 34.050444
641 1 0.8918 12.61139 32.789319
642 1 0.8918 15.133569 32.78939
643 1 2.6752 13.872444 31.528265
644 1 2.6752 13.872515 34.050444
645 1 3.567 11.350194 32.789319
646 1 3.567 13.872444 32.789319
647 1 5.3505 12.611319 31.528194
648 1 5.3505 12.611319 34.050444
649 1 4.4588 12.61139 32.789319
650 1 4.4588 15.133569 32.78939
651 1 6.2422 13.872444 31.528265
652 1 6.2422 13.872515 34.050444
653 1 7.134 11.350194 32.789319
654 1 7.134 13.872444 32.789319
655 1 8.9175 12.611319 31.528194
656 1 8.9175 12.611319 34.050444
657 1 8.0258 12.61139 32.789319
658 1 8.0258 15.133569 32.78939
659 1 9.8092 13.872444 31.528265
660 1 9.8092 13.872515 34.050444
661 1 10.701 11.350194 32.789319
662 1 10.701 13.872444 32.789319
663 1 12.4845 12.611319 31.528194
664 1 12.4845 12.611319 34.050444
665 1 11.5928 12.61139 32.789319
666 1 11.5928 15.133569 32.78939
667 1 13.3763 13.872444 31.528265
668 1 13.3763 13.872515 34.050444
669 1 14.268 11.350194 32.789319
670 1 14.268 13.872444 32.789319
671 1 16.0515 12.611319 31.528194
672 1 16.0515 12.611319 34.050444
673 1 15.1598 12.61139 32.789319
674 1 15.1598 15.133569 32.78939
675 1 16.9433 13.872444 31.528265
676 1 16.9433 13.872515 34.050444
677 1 17.835 11.350194 32.789319
678 1 17.835 13.872444 32.789319
679 1 19.6185 12.611319 31.528194
680 1 19.6185 12.611319 34.050444
681 1 18.7268 12.61139 32.789319
682 1 18.7268 15.133569 32.78939
683 1 20.5103 13.872444 31.528265
684 1 20.5103 13.872515 34.050444
685 1 0.0 13.872444 35.311569
686 1 0.0 16.394694 35.311569
687 1 1.7835 15.133569 34.050444
688 1 0.8918 15.133639 35.311569
689 1 0.8918 17.655819 35.31164
690 1 2.6752 16.394694 34.050515
691 1 3.567 13.872444 35.311569
692 1 3.567 16.394694 35.311569
693 1 5.3505 15.133569 34.050444
694 1 4.4588 15.133639 35.311569
695 1 4.4588 17.655819 35.31164
696 1 6.2422 16.394694 34.050515
697 1 7.134 13.872444 35.311569
698 1 7.134 16.394694 35.311569
699 1 8.9175 15.133569 34.050444
700 1 8.0258 15.133639 35.311569
701 1 8.0258 17.655819 35.31164
702 1 9.8092 16.394694 34.050515
703 1 10.701 13.872444 35.311569
704 1 10.701 16.394694 35.311569
705 1 12.4845 15.133569 34.050444
706 1 11.5928 15.133639 35.311569
707 1 11.5928 17.655819 35.31164
708 1 13.3763 16.394694 34.050515
709 1 14.268 13.872444 35.311569
710 1 14.268 16.394694 35.311569
711 1 16.0515 15.133569 34.050444
712 1 15.1598 15.133639 35.311569
713 1 15.1598 17.655819 35.31164
714 1 16.9433 16.394694 34.050515
715 1 17.835 13.872444 35.311569
716 1 17.835 16.394694 35.311569
717 1 19.6185 15.133569 34.050444
718 1 18.7268 15.133639 35.311569
719 1 18.7268 17.655819 35.31164
720 1 20.5103 16.394694 34.050515
721 1 0.8918 0.0 12.61132
722 1 4.4588 0.0 12.61132
723 1 8.0258 0.0 12.61132
724 1 11.5928 0.0 12.61132
725 1 15.1598 0.0 12.61132
726 1 18.7268 0.0 12.61132
727 1 0.0 1.261195 15.13357
728 1 1.7835 7e-05 13.872445
729 1 1.7835 7e-05 16.394695
730 1 0.8918 0.00014 15.13357
731 1 0.8918 2.522249 15.13357
732 1 2.6752 1.261195 13.872516
733 1 2.6752 1.261195 16.394624
734 1 3.567 1.261195 15.13357
735 1 5.3505 7e-05 13.872445
736 1 5.3505 7e-05 16.394695
737 1 4.4588 0.00014 15.13357
738 1 4.4588 2.522249 15.13357
739 1 6.2422 1.261195 13.872516
740 1 6.2422 1.261195 16.394624
741 1 7.134 1.261195 15.13357
742 1 8.9175 7e-05 13.872445
743 1 8.9175 7e-05 16.394695
744 1 8.0258 0.00014 15.13357
745 1 8.0258 2.522249 15.13357
746 1 9.8092 1.261195 13.872516
747 1 9.8092 1.261195 16.394624
748 1 10.701 1.261195 15.13357
749 1 12.4845 7e-05 13.872445
750 1 12.4845 7e-05 16.394695
751 1 11.5928 0.00014 15.13357
752 1 11.5928 2.522249 15.13357
753 1 13.3763 1.261195 13.872516
754 1 13.3763 1.261195 16.394624
755 1 14.268 1.261195 15.13357
756 1 16.0515 7e-05 13.872445
757 1 16.0515 7e-05 16.394695
758 1 15.1598 0.00014 15.13357
759 1 15.1598 2.522249 15.13357
760 1 16.9433 1.261195 13.872516
761 1 16.9433 1.261195 16.394624
762 1 17.835 1.261195 15.13357
763 1 19.6185 7e-05 13.872445
764 1 19.6185 7e-05 16.394695
765 1 18.7268 0.00014 15.13357
766 1 18.7268 2.522249 15.13357
767 1 20.5103 1.261195 13.872516
768 1 20.5103 1.261195 16.394624
769 1 0.0 1.261195 17.65582
770 1 0.0 3.783445 17.65582
771 1 1.7835 2.52232 16.394695
772 1 1.7835 2.52232 18.916945
773 1 0.8918 2.52239 17.65582
774 1 0.8918 5.044499 17.65582
775 1 2.6752 3.783445 16.394766
776 1 2.6752 3.783445 18.916874
777 1 3.567 1.261195 17.65582
778 1 3.567 3.783445 17.65582
779 1 5.3505 2.52232 16.394695
780 1 5.3505 2.52232 18.916945
781 1 4.4588 2.52239 17.65582
782 1 4.4588 5.044499 17.65582
783 1 6.2422 3.783445 16.394766
784 1 6.2422 3.783445 18.916874
785 1 7.134 1.261195 17.65582
786 1 7.134 3.783445 17.65582
787 1 8.9175 2.52232 16.394695
788 1 8.9175 2.52232 18.916945
789 1 8.0258 2.52239 17.65582
790 1 8.0258 5.044499 17.65582
791 1 9.8092 3.783445 16.394766
792 1 9.8092 3.783445 18.916874
793 1 10.701 1.261195 17.65582
794 1 10.701 3.783445 17.65582
795 1 12.4845 2.52232 16.394695
796 1 12.4845 2.52232 18.916945
797 1 11.5928 2.52239 17.65582
798 1 11.5928 5.044499 17.65582
799 1 13.3763 3.783445 16.394766
800 1 13.3763 3.783445 18.916874
801 1 14.268 1.261195 17.65582
802 1 14.268 3.783445 17.65582
803 1 16.0515 2.52232 16.394695
804 1 16.0515 2.52232 18.916945
805 1 15.1598 2.52239 17.65582
806 1 15.1598 5.044499 17.65582
807 1 16.9433 3.783445 16.394766
808 1 16.9433 3.783445 18.916874
809 1 17.835 1.261195 17.65582
810 1 17.835 3.783445 17.65582
811 1 19.6185 2.52232 16.394695
812 1 19.6185 2.52232 18.916945
813 1 18.7268 2.52239 17.65582
814 1 18.7268 5.044499 17.65582
815 1 20.5103 3.783445 16.394766
816 1 20.5103 3.783445 18.916874
817 1 0.0 3.783445 20.17807
818 1 0.0 6.305695 20.17807
819 1 1.7835 5.04457 18.916945
820 1 1.7835 5.04457 21.439195
821 1 0.8918 5.04464 20.17807
822 1 0.8918 7.566749 20.17807
823 1 2.6752 6.305695 18.917016
824 1 2.6752 6.305695 21.439124
825 1 3.567 3.783445 20.17807
826 1 3.567 6.305695 20.17807
827 1 5.3505 5.04457 18.916945
828 1 5.3505 5.04457 21.439195
829 1 4.4588 5.04464 20.17807
830 1 4.4588 7.566749 20.17807
831 1 6.2422 6.305695 18.917016
832 1 6.2422 6.305695 21.439124
833 1 7.134 3.783445 20.17807
834 1 7.134 6.305695 20.17807
835 1 8.9175 5.04457 18.916945
836 1 8.9175 5.04457 21.439195
837 1 8.0258 5.04464 20.17807
838 1 8.0258 7.566749 20.17807
839 1 9.8092 6.305695 18.917016
840 1 9.8092 6.305695 21.439124
841 1 10.701 3.783445 20.17807
842 1 10.701 6.305695 20.17807
843 1 12.4845 5.04457 18.916945
844 1 12.4845 5.04457 21.439195
845 1 11.5928 5.04464 20.17807
846 1 11.5928 7.566749 20.17807
847 1 13.3763 6.305695 18.917016
848 1 13.3763 6.305695 21.439124
849 1 14.268 3.783445 20.17807
850 1 14.268 6.305695 20.17807
851 1 16.0515 5.04457 18.916945
852 1 16.0515 5.04457 21.439195
853 1 15.1598 5.04464 20.17807
854 1 15.1598 7.566749 20.17807
855 1 16.9433 6.305695 18.917016
856 1 16.9433 6.305695 21.439124
857 1 17.835 3.783445 20.17807
858 1 17.835 6.305695 20.17807
859 1 19.6185 5.04457 18.916945
860 1 19.6185 5.04457 21.439195
861 1 18.7268 5.04464 20.17807
862 1 18.7268 7.566749 20.17807
863 1 20.5103 6.305695 18.917016
864 1 20.5103 6.305695 21.439124
865 1 0.0 6.305695 22.70032
866 1 0.0 8.827944 22.70032
867 1 1.7835 7.566819 21.439195
868 1 1.7835 7.566819 23.961445
869 1 0.8918 7.56689 22.70032
870 1 0.8918 10.089069 22.70039
871 1 2.6752 8.827944 21.439266
872 1 2.6752 8.828015 23.961445
873 1 3.567 6.305695 22.70032
874 1 3.567 8.827944 22.70032
875 1 5.3505 7.566819 21.439195
876 1 5.3505 7.566819 23.961445
877 1 4.4588 7.56689 22.70032
878 1 4.4588 10.089069 22.70039
879 1 6.2422 8.827944 21.439266
880 1 6.2422 8.828015 23.961445
881 1 7.134 6.305695 22.70032
882 1 7.134 8.827944 22.70032
883 1 8.9175 7.566819 21.439195
884 1 8.9175 7.566819 23.961445
885 1 8.0258 7.56689 22.70032
886 1 8.0258 10.089069 22.70039
887 1 9.8092 8.827944 21.439266
888 1 9.8092 8.828015 23.961445
889 1 10.701 6.305695 22.70032
890 1 10.701 8.827944 22.70032
891 1 12.4845 7.566819 21.439195
892 1 12.4845 7.566819 23.961445
893 1 11.5928 7.56689 22.70032
894 1 11.5928 10.089069 22.70039
895 1 13.3763 8.827944 21.439266
896 1 13.3763 8.828015 23.961445
897 1 14.268 6.305695 22.70032
898 1 14.268 8.827944 22.70032
899 1 16.0515 7.566819 21.439195
900 1 16.0515 7.566819 23.961445
901 1 15.1598 7.56689 22.70032
902 1 15.1598 10.089069 22.70039
903 1 16.9433 8.827944 21.439266
904 1 16.9433 8.828015 23.961445
905 1 17.835 6.305695 22.70032
906 1 17.835 8.827944 22.70032
907 1 19.6185 7.566819 21.439195
908 1 19.6185 7.566819 23.961445
909 1 18.7268 7.56689 22.70032
910 1 18.7268 10.089069 22.70039
911 1 20.5103 8.827944 21.439266
912 1 20.5103 8.828015 23.961445
913 1 0.0 8.827944 25.22257
914 1 0.0 11.350194 25.22257
915 1 1.7835 10.089069 23.961445
916 1 1.7835 10.089069 26.483695
917 1 0.8918 10.08914 25.22257
918 1 0.8918 12.611319 25.22264
919 1 2.6752 11.350194 23.961515
920 1 2.6752 11.350265 26.483695
921 1 3.567 8.827944 25.22257
922 1 3.567 11.350194 25.22257
923 1 5.3505 10.089069 23.961445
924 1 5.3505 10.089069 26.483695
925 1 4.4588 10.08914 25.22257
926 1 4.4588 12.611319 25.22264
927 1 6.2422 11.350194 23.961515
928 1 6.2422 11.350265 26.483695
929 1 7.134 8.827944 25.22257
930 1 7.134 11.350194 25.22257
931 1 8.9175 10.089069 23.961445
932 1 8.9175 10.089069 26.483695
933 1 8.0258 10.08914 25.22257
934 1 8.0258 12.611319 25.22264
935 1 9.8092 11.350194 23.961515
936 1 9.8092 11.350265 26.483695
937 1 10.701 8.827944 25.22257
938 1 10.701 11.350194 25.22257
939 1 12.4845 10.089069 23.961445
940 1 12.4845 10.089069 26.483695
941 1 11.5928 10.08914 25.22257
942 1 11.5928 12.611319 25.22264
943 1 13.3763 11.350194 23.961515
944 1 13.3763 11.350265 26.483695
945 1 14.268 8.827944 25.22257
946 1 14.268 11.350194 25.22257
947 1 16.0515 10.089069 23.961445
948 1 16.0515 10.089069 26.483695
949 1 15.1598 10.08914 25.22257
950 1 15.1598 12.611319 25.22264