LAMMPS data file from restart file: timestep = 1, procs = 1

12348 atoms

2 atom types

0 34.949483 xlo xhi
0 34.050444 ylo yhi
0 71.34 zlo zhi

Masses

1 12.01
2 1.0079

Atoms

1 1 30.580715 3.6e-05 0.514794
2 1 32.036958 0.0 0.0
3 1 32.76513 1.261161 0.514852
4 1 33.493159 3.6e-05 2.574203
5 1 34.94938 3.6e-05 0.514794
6 1 34.949401 0.0 2.059408
7 1 34.22129 1.261125 0.0
8 1 34.94938 2.522286 0.514794
9 1 21.843386 3.6e-05 0.514794
10 1 23.299628 0.0 0.0
11 1 24.0278 1.261161 0.514852
12 1 24.755829 3.6e-05 2.574203
13 1 26.212051 3.6e-05 0.514794
14 1 26.212071 0.0 2.059408
15 1 26.940243 1.261161 2.57426
16 1 27.668272 3.6e-05 4.633611
17 1 29.124494 3.6e-05 2.574203
18 1 29.124514 0.0 4.118817
19 1 29.852686 1.261161 4.633669
20 1 30.580715 3.6e-05 6.693019
21 1 32.036937 3.6e-05 4.633611
22 1 32.036958 0.0 6.178225
23 1 32.76513 1.261161 6.693077
24 1 33.49324 3.6e-05 8.752486
25 1 34.949462 3.6e-05 6.693077
26 1 34.949401 0.0 8.237633
27 1 25.48396 1.261125 0.0
28 1 26.212051 2.522286 0.514794
29 1 27.668293 0.0 0.0
30 1 27.668293 2.52225 0.0
31 1 28.396403 1.261125 2.059408
32 1 29.852625 1.261125 0.0
33 1 28.396465 1.261161 0.514852
34 1 28.396465 3.783411 0.514852
35 1 29.124494 2.522286 2.574203
36 1 30.580715 2.522286 0.514794
37 1 30.580736 0.0 2.059408
38 1 30.580736 2.52225 2.059408
39 1 31.308847 1.261125 4.118817
40 1 32.765068 1.261125 2.059408
41 1 31.308908 1.261161 2.57426
42 1 31.308908 3.783411 2.57426
43 1 32.036937 2.522286 4.633611
44 1 33.493159 2.522286 2.574203
45 1 33.493179 0.0 4.118817
46 1 33.493179 2.52225 4.118817
47 1 34.22129 1.261125 6.178225
48 1 34.221351 1.261161 4.633669
49 1 34.221351 3.783411 4.633669
50 1 34.949462 2.522286 6.693077
51 1 29.852625 3.783375 0.0
52 1 30.580715 5.044536 0.514794
53 1 32.036958 2.52225 0.0
54 1 32.036958 5.0445 0.0
55 1 32.765068 3.783375 2.059408
56 1 34.22129 3.783375 0.0
57 1 32.76513 3.783411 0.514852
58 1 32.76513 6.305661 0.514852
59 1 33.493159 5.044536 2.574203
60 1 34.94938 5.044536 0.514794
61 1 34.949401 2.52225 2.059408
62 1 34.949401 5.0445 2.059408
63 1 34.22129 6.305625 0.0
64 1 34.94938 7.566786 0.514794
65 1 13.106056 3.6e-05 0.514794
66 1 14.562298 0.0 0.0
67 1 15.29047 1.261161 0.514852
68 1 16.018499 3.6e-05 2.574203
69 1 17.474721 3.6e-05 0.514794
70 1 17.474741 0.0 2.059408
71 1 18.202913 1.261161 2.57426
72 1 18.930942 3.6e-05 4.633611
73 1 20.387164 3.6e-05 2.574203
74 1 20.387184 0.0 4.118817
75 1 21.115356 1.261161 4.633669
76 1 21.843386 3.6e-05 6.693019
77 1 23.299607 3.6e-05 4.633611
78 1 23.299628 0.0 6.178225
79 1 24.0278 1.261161 6.693077
80 1 24.755829 3.6e-05 8.752428
81 1 26.212051 3.6e-05 6.693019
82 1 26.212071 0.0 8.237633
83 1 26.940243 1.261161 8.752486
84 1 27.668272 3.6e-05 10.811836
85 1 29.124494 3.6e-05 8.752428
86 1 29.124514 0.0 10.297042
87 1 29.852686 1.261161 10.811894
88 1 30.580797 3.6e-05 12.871302
89 1 32.037019 3.6e-05 10.811894
90 1 32.036958 0.0 12.35645
91 1 32.76513 1.261161 12.871302
92 1 33.49324 3.6e-05 14.930711
93 1 34.949462 3.6e-05 12.871302
94 1 34.949401 0.0 14.415859
95 1 16.74663 1.261125 0.0
96 1 17.474721 2.522286 0.514794
97 1 18.930963 0.0 0.0
98 1 18.930963 2.52225 0.0
99 1 19.659074 1.261125 2.059408
100 1 21.115295 1.261125 0.0
101 1 19.659135 1.261161 0.514852
102 1 19.659135 3.783411 0.514852
103 1 20.387164 2.522286 2.574203
104 1 21.843386 2.522286 0.514794
105 1 21.843406 0.0 2.059408
106 1 21.843406 2.52225 2.059408
107 1 22.571517 1.261125 4.118817
108 1 24.027738 1.261125 2.059408
109 1 22.571578 1.261161 2.57426
110 1 22.571578 3.783411 2.57426
111 1 23.299607 2.522286 4.633611
112 1 24.755829 2.522286 2.574203
113 1 24.755849 0.0 4.118817
114 1 24.755849 2.52225 4.118817
115 1 25.48396 1.261125 6.178225
116 1 26.940182 1.261125 4.118817
117 1 25.484021 1.261161 4.633669
118 1 25.484021 3.783411 4.633669
119 1 26.212051 2.522286 6.693019
120 1 27.668272 2.522286 4.633611
121 1 27.668293 0.0 6.178225
122 1 27.668293 2.52225 6.178225
123 1 28.396403 1.261125 8.237633
124 1 29.852625 1.261125 6.178225
125 1 28.396465 1.261161 6.693077
126 1 28.396465 3.783411 6.693077
127 1 29.124494 2.522286 8.752428
128 1 30.580715 2.522286 6.693019
129 1 30.580736 0.0 8.237633
130 1 30.580736 2.52225 8.237633
131 1 31.308847 1.261125 10.297042
132 1 32.765068 1.261125 8.237633
133 1 31.308908 1.261161 8.752486
134 1 31.308908 3.783411 8.752486
135 1 32.037019 2.522286 10.811894
136 1 33.49324 2.522286 8.752486
137 1 33.493179 0.0 10.297042
138 1 33.493179 2.52225 10.297042
139 1 34.22129 1.261125 12.35645
140 1 34.221351 1.261161 10.811894
141 1 34.221351 3.783411 10.811894
142 1 34.949462 2.522286 12.871302
143 1 21.115295 3.783375 0.0
144 1 21.843386 5.044536 0.514794
145 1 23.299628 2.52225 0.0
146 1 23.299628 5.0445 0.0
147 1 24.027738 3.783375 2.059408
148 1 25.48396 3.783375 0.0
149 1 24.0278 3.783411 0.514852
150 1 24.0278 6.305661 0.514852
151 1 24.755829 5.044536 2.574203
152 1 26.212051 5.044536 0.514794
153 1 26.212071 2.52225 2.059408
154 1 26.212071 5.0445 2.059408
155 1 26.940182 3.783375 4.118817
156 1 28.396403 3.783375 2.059408
157 1 26.940243 3.783411 2.57426
158 1 26.940243 6.305661 2.57426
159 1 27.668272 5.044536 4.633611
160 1 29.124494 5.044536 2.574203
161 1 29.124514 2.52225 4.118817
162 1 29.124514 5.0445 4.118817
163 1 29.852625 3.783375 6.178225
164 1 31.308847 3.783375 4.118817
165 1 29.852686 3.783411 4.633669
166 1 29.852686 6.305661 4.633669
167 1 30.580715 5.044536 6.693019
168 1 32.036937 5.044536 4.633611
169 1 32.036958 2.52225 6.178225
170 1 32.036958 5.0445 6.178225
171 1 32.765068 3.783375 8.237633
172 1 34.22129 3.783375 6.178225
173 1 32.76513 3.783411 6.693077
174 1 32.76513 6.305661 6.693077
175 1 33.49324 5.044536 8.752486
176 1 34.949462 5.044536 6.693077
177 1 34.949401 2.52225 8.237633
178 1 34.949401 5.0445 8.237633
179 1 25.48396 6.305625 0.0
180 1 26.212051 7.566786 0.514794
181 1 27.668293 5.0445 0.0
182 1 27.668293 7.56675 0.0
183 1 28.396403 6.305625 2.059408
184 1 29.852625 6.305625 0.0
185 1 28.396465 6.305661 0.514852
186 1 28.396465 8.827911 0.514852
187 1 29.124494 7.566786 2.574203
188 1 30.580715 7.566786 0.514794
189 1 30.580736 5.0445 2.059408
190 1 30.580736 7.56675 2.059408
191 1 31.308847 6.305625 4.118817
192 1 32.765068 6.305625 2.059408
193 1 31.308908 6.305661 2.57426
194 1 31.308908 8.827911 2.57426
195 1 32.036937 7.566786 4.633611
196 1 33.493159 7.566786 2.574203
197 1 33.493179 5.0445 4.118817
198 1 33.493179 7.56675 4.118817
199 1 34.22129 6.305625 6.178225
200 1 34.221351 6.305661 4.633669
201 1 34.221351 8.827911 4.633669
202 1 34.949462 7.566786 6.693077
203 1 29.852625 8.827875 0.0
204 1 30.580715 10.089035 0.514794
205 1 32.036958 7.56675 0.0
206 1 32.036958 10.089 0.0
207 1 32.765068 8.827875 2.059408
208 1 34.22129 8.827875 0.0
209 1 32.76513 8.827911 0.514852
210 1 32.76513 11.35016 0.514852
211 1 33.493159 10.089035 2.574203
212 1 34.94938 10.089035 0.514794
213 1 34.949401 7.56675 2.059408
214 1 34.949401 10.089 2.059408
215 1 34.22129 11.350125 0.0
216 1 34.94938 12.611285 0.514794
217 1 4.368746 7.1e-05 0.514852
218 1 5.824968 0.0 0.0
219 1 6.553079 1.261125 0.514938
220 1 7.28123 7.1e-05 2.574289
221 1 8.737411 0.0 0.514938
222 1 8.737411 0.0 2.059408
223 1 9.465522 1.261125 2.574347
224 1 10.193592 7.1e-05 4.63364
225 1 11.649773 0.0 2.574289
226 1 11.649854 0.0 4.118817
227 1 12.377965 1.261125 4.633755
228 1 13.106035 7.1e-05 6.693048
229 1 14.562216 0.0 4.633698
230 1 14.562298 0.0 6.178225
231 1 15.290409 1.261125 6.693164
232 1 16.018479 7.1e-05 8.752457
233 1 17.474659 0.0 6.693106
234 1 17.474741 0.0 8.237633
235 1 18.202852 1.261125 8.752572
236 1 18.930922 7.1e-05 10.811865
237 1 20.387103 0.0 8.752514
238 1 20.387184 0.0 10.297042
239 1 21.115295 1.261125 10.811981
240 1 21.843365 7.1e-05 12.871273
241 1 23.299546 0.0 10.811923
242 1 23.299628 0.0 12.35645
243 1 24.027738 1.261125 12.871389
244 1 24.755808 7.1e-05 14.930682
245 1 26.211989 0.0 12.871331
246 1 26.212071 0.0 14.415859
247 1 26.940182 1.261125 14.930797
248 1 27.668333 7.1e-05 16.990148
249 1 29.124514 0.0 14.930797
250 1 29.124514 0.0 16.475267
251 1 29.852625 1.261125 16.990206
252 1 30.580777 7.1e-05 19.049556
253 1 32.036958 0.0 16.990206
254 1 32.036958 0.0 18.534675
255 1 32.765068 1.261125 19.049614
256 1 33.49322 7.1e-05 21.108965
257 1 34.949401 0.0 19.049614
258 1 34.949401 0.0 20.594084
259 1 8.0093 1.261125 0.0
260 1 8.737452 2.52232 0.514881
261 1 10.193633 0.0 0.0
262 1 10.193633 2.52225 0.0
263 1 10.921744 1.261125 2.059408
264 1 12.377965 1.261125 0.0
265 1 10.921784 1.261196 0.514881
266 1 10.921784 3.783445 0.514881
267 1 11.649814 2.52232 2.574231
268 1 13.106035 2.52232 0.514823
269 1 13.106076 0.0 2.059408
270 1 13.106076 2.52225 2.059408
271 1 13.834187 1.261125 4.118817
272 1 15.290409 1.261125 2.059408
273 1 13.834228 1.261196 2.574289
274 1 13.834228 3.783445 2.574289
275 1 14.562257 2.52232 4.63364
276 1 16.018479 2.52232 2.574231
277 1 16.018519 0.0 4.118817
278 1 16.018519 2.52225 4.118817
279 1 16.74663 1.261125 6.178225
280 1 18.202852 1.261125 4.118817
281 1 16.746671 1.261196 4.633698
282 1 16.746671 3.783445 4.633698
283 1 17.4747 2.52232 6.693048
284 1 18.930922 2.52232 4.63364
285 1 18.930963 0.0 6.178225
286 1 18.930963 2.52225 6.178225
287 1 19.659074 1.261125 8.237633
288 1 21.115295 1.261125 6.178225
289 1 19.659114 1.261196 6.693106
290 1 19.659114 3.783445 6.693106
291 1 20.387144 2.52232 8.752457
292 1 21.843365 2.52232 6.693048
293 1 21.843406 0.0 8.237633
294 1 21.843406 2.52225 8.237633
295 1 22.571517 1.261125 10.297042
296 1 24.027738 1.261125 8.237633
297 1 22.571558 1.261196 8.752514
298 1 22.571558 3.783445 8.752514
299 1 23.299587 2.52232 10.811865
300 1 24.755808 2.52232 8.752457
301 1 24.755849 0.0 10.297042
302 1 24.755849 2.52225 10.297042
303 1 25.48396 1.261125 12.35645
304 1 26.940182 1.261125 10.297042
305 1 25.484001 1.261196 10.811923
306 1 25.484001 3.783445 10.811923
307 1 26.21203 2.52232 12.871273
308 1 27.668252 2.52232 10.811865
309 1 27.668293 0.0 12.35645
310 1 27.668293 2.52225 12.35645
311 1 28.396403 1.261125 14.415859
312 1 29.852625 1.261125 12.35645
313 1 28.396444 1.261196 12.871331
314 1 28.396444 3.783445 12.871331
315 1 29.124555 2.52232 14.93074
316 1 30.580777 2.52232 12.871331
317 1 30.580736 0.0 14.415859
318 1 30.580736 2.52225 14.415859
319 1 31.308847 1.261125 16.475267
320 1 32.765068 1.261125 14.415859
321 1 31.308888 1.261196 14.93074
322 1 31.308888 3.783445 14.93074
323 1 32.036998 2.52232 16.990148
324 1 33.49322 2.52232 14.93074
325 1 33.493179 0.0 16.475267
326 1 33.493179 2.52225 16.475267
327 1 34.22129 1.261125 18.534675
328 1 34.221331 1.261196 16.990148
329 1 34.221331 3.783445 16.990148
330 1 34.949442 2.52232 19.049556
331 1 12.377965 3.783375 0.0
332 1 13.106035 5.04457 0.514823
333 1 14.562298 2.52225 0.0
334 1 14.562298 5.0445 0.0
335 1 15.290409 3.783375 2.059408
336 1 16.74663 3.783375 0.0
337 1 15.290449 3.783445 0.514881
338 1 15.290449 6.305695 0.514881
339 1 16.018479 5.04457 2.574231
340 1 17.4747 5.04457 0.514823
341 1 17.474741 2.52225 2.059408
342 1 17.474741 5.0445 2.059408
343 1 18.202852 3.783375 4.118817
344 1 19.659074 3.783375 2.059408
345 1 18.202893 3.783445 2.574289
346 1 18.202893 6.305695 2.574289
347 1 18.930922 5.04457 4.63364
348 1 20.387144 5.04457 2.574231
349 1 20.387184 2.52225 4.118817
350 1 20.387184 5.0445 4.118817
351 1 21.115295 3.783375 6.178225
352 1 22.571517 3.783375 4.118817
353 1 21.115336 3.783445 4.633698
354 1 21.115336 6.305695 4.633698
355 1 21.843365 5.04457 6.693048
356 1 23.299587 5.04457 4.63364
357 1 23.299628 2.52225 6.178225
358 1 23.299628 5.0445 6.178225
359 1 24.027738 3.783375 8.237633
360 1 25.48396 3.783375 6.178225
361 1 24.027779 3.783445 6.693106
362 1 24.027779 6.305695 6.693106
363 1 24.755808 5.04457 8.752457
364 1 26.21203 5.04457 6.693048
365 1 26.212071 2.52225 8.237633
366 1 26.212071 5.0445 8.237633
367 1 26.940182 3.783375 10.297042
368 1 28.396403 3.783375 8.237633
369 1 26.940223 3.783445 8.752514
370 1 26.940223 6.305695 8.752514
371 1 27.668252 5.04457 10.811865
372 1 29.124473 5.04457 8.752457
373 1 29.124514 2.52225 10.297042
374 1 29.124514 5.0445 10.297042
375 1 29.852625 3.783375 12.35645
376 1 31.308847 3.783375 10.297042
377 1 29.852666 3.783445 10.811923
378 1 29.852666 6.305695 10.811923
379 1 30.580777 5.04457 12.871331
380 1 32.036998 5.04457 10.811923
381 1 32.036958 2.52225 12.35645
382 1 32.036958 5.0445 12.35645
383 1 32.765068 3.783375 14.415859
384 1 34.22129 3.783375 12.35645
385 1 32.765109 3.783445 12.871331
386 1 32.765109 6.305695 12.871331
387 1 33.49322 5.04457 14.93074
388 1 34.949442 5.04457 12.871331
389 1 34.949401 2.52225 14.415859
390 1 34.949401 5.0445 14.415859
391 1 16.74663 6.305625 0.0
392 1 17.4747 7.56682 0.514823
393 1 18.930963 5.0445 0.0
394 1 18.930963 7.56675 0.0
395 1 19.659074 6.305625 2.059408
396 1 21.115295 6.305625 0.0
397 1 19.659114 6.305695 0.514881
398 1 19.659114 8.827945 0.514881
399 1 20.387144 7.56682 2.574231
400 1 21.843365 7.56682 0.514823
401 1 21.843406 5.0445 2.059408
402 1 21.843406 7.56675 2.059408
403 1 22.571517 6.305625 4.118817
404 1 24.027738 6.305625 2.059408
405 1 22.571558 6.305695 2.574289
406 1 22.571558 8.827945 2.574289
407 1 23.299587 7.56682 4.63364
408 1 24.755808 7.56682 2.574231
409 1 24.755849 5.0445 4.118817
410 1 24.755849 7.56675 4.118817
411 1 25.48396 6.305625 6.178225
412 1 26.940182 6.305625 4.118817
413 1 25.484001 6.305695 4.633698
414 1 25.484001 8.827945 4.633698
415 1 26.21203 7.56682 6.693048
416 1 27.668252 7.56682 4.63364
417 1 27.668293 5.0445 6.178225
418 1 27.668293 7.56675 6.178225
419 1 28.396403 6.305625 8.237633
420 1 29.852625 6.305625 6.178225
421 1 28.396444 6.305695 6.693106
422 1 28.396444 8.827945 6.693106
423 1 29.124473 7.56682 8.752457
424 1 30.580695 7.56682 6.693048
425 1 30.580736 5.0445 8.237633
426 1 30.580736 7.56675 8.237633
427 1 31.308847 6.305625 10.297042
428 1 32.765068 6.305625 8.237633
429 1 31.308888 6.305695 8.752514
430 1 31.308888 8.827945 8.752514
431 1 32.036998 7.56682 10.811923
432 1 33.49322 7.56682 8.752514
433 1 33.493179 5.0445 10.297042
434 1 33.493179 7.56675 10.297042
435 1 34.22129 6.305625 12.35645
436 1 34.221331 6.305695 10.811923
437 1 34.221331 8.827945 10.811923
438 1 34.949442 7.56682 12.871331
439 1 21.115295 8.827875 0.0
440 1 21.843365 10.08907 0.514823
441 1 23.299628 7.56675 0.0
442 1 23.299628 10.089 0.0
443 1 24.027738 8.827875 2.059408
444 1 25.48396 8.827875 0.0
445 1 24.027779 8.827945 0.514881
446 1 24.027779 11.350195 0.514881
447 1 24.755808 10.08907 2.574231
448 1 26.21203 10.08907 0.514823
449 1 26.212071 7.56675 2.059408
450 1 26.212071 10.089 2.059408
451 1 26.940182 8.827875 4.118817
452 1 28.396403 8.827875 2.059408
453 1 26.940223 8.827945 2.574289
454 1 26.940223 11.350195 2.574289
455 1 27.668252 10.08907 4.63364
456 1 29.124473 10.08907 2.574231
457 1 29.124514 7.56675 4.118817
458 1 29.124514 10.089 4.118817
459 1 29.852625 8.827875 6.178225
460 1 31.308847 8.827875 4.118817
461 1 29.852666 8.827945 4.633698
462 1 29.852666 11.350195 4.633698
463 1 30.580695 10.08907 6.693048
464 1 32.036917 10.08907 4.63364
465 1 32.036958 7.56675 6.178225
466 1 32.036958 10.089 6.178225
467 1 32.765068 8.827875 8.237633
468 1 34.22129 8.827875 6.178225
469 1 32.765109 8.827945 6.693106
470 1 32.765109 11.350195 6.693106
471 1 33.49322 10.08907 8.752514
472 1 34.949442 10.08907 6.693106
473 1 34.949401 7.56675 8.237633
474 1 34.949401 10.089 8.237633
475 1 25.48396 11.350125 0.0
476 1 26.21203 12.61132 0.514823
477 1 27.668293 10.089 0.0
478 1 27.668293 12.61125 0.0
479 1 28.396403 11.350125 2.059408
480 1 29.852625 11.350125 0.0
481 1 28.396444 11.350195 0.514881
482 1 28.396444 13.872445 0.514881
483 1 29.124473 12.61132 2.574231
484 1 30.580695 12.61132 0.514823
485 1 30.580736 10.089 2.059408
486 1 30.580736 12.61125 2.059408
487 1 31.308847 11.350125 4.118817
488 1 32.765068 11.350125 2.059408
489 1 31.308888 11.350195 2.574289
490 1 31.308888 13.872445 2.574289
491 1 32.036917 12.61132 4.63364
492 1 33.493138 12.61132 2.574231
493 1 33.493179 10.089 4.118817
494 1 33.493179 12.61125 4.118817
495 1 34.22129 11.350125 6.178225
496 1 34.221331 11.350195 4.633698
497 1 34.221331 13.872445 4.633698
498 1 34.949442 12.61132 6.693106
499 1 29.852625 13.872374 0.0
500 1 30.580695 15.13357 0.514823
501 1 32.036958 12.61125 0.0
502 1 32.036958 15.133499 0.0
503 1 32.765068 13.872374 2.059408
504 1 34.22129 13.872374 0.0
505 1 32.765109 13.872445 0.514881
506 1 32.765109 16.394695 0.514881
507 1 33.493138 15.13357 2.574231
508 1 34.94936 15.13357 0.514823
509 1 34.949401 12.61125 2.059408
510 1 34.949401 15.133499 2.059408
511 1 34.22129 16.394624 0.0
512 1 34.94936 17.65582 0.514823
513 1 4e-05 0.0 0.51491
514 1 8.1e-05 0.0 2.059408
515 1 0.728192 1.261055 2.57426
516 1 1.456344 0.0 4.633611
517 1 2.912484 0.0 2.574318
518 1 2.912525 0.0 4.118817
519 1 3.640676 1.261055 4.633698
520 1 4.368828 0.0 6.693048
521 1 5.824968 0.0 4.633755
522 1 5.824968 0.0 6.178225
523 1 6.553119 1.261055 6.693106
524 1 7.281189 0.0 8.752399
525 1 8.737329 0.0 6.693106
526 1 8.737411 0.0 8.237633
527 1 9.465563 1.261055 8.752514
528 1 10.193633 0.0 10.811807
529 1 11.649773 0.0 8.752514
530 1 11.649854 0.0 10.297042
531 1 12.378006 1.261055 10.811923
532 1 13.106076 0.0 12.871216
533 1 14.562216 0.0 10.811923
534 1 14.562298 0.0 12.35645
535 1 15.290449 1.261055 12.871331
536 1 16.018519 0.0 14.930624
537 1 17.474659 0.0 12.871331
538 1 17.474741 0.0 14.415859
539 1 18.202893 1.261055 14.93074
540 1 18.930963 0.0 16.990033
541 1 20.387103 0.0 14.93074
542 1 20.387184 0.0 16.475267
543 1 21.115336 1.261055 16.990148
544 1 21.843406 0.0 19.049441
545 1 23.299546 0.0 16.990148
546 1 23.299628 0.0 18.534675
547 1 24.027779 1.261055 19.049556
548 1 24.755931 0.0 21.108907
549 1 26.212071 0.0 19.049614
550 1 26.212071 0.0 20.594084
551 1 26.940223 1.261055 21.108965
552 1 27.668374 0.0 23.168316
553 1 29.124514 0.0 21.109023
554 1 29.124514 0.0 22.653492
555 1 29.852666 1.261055 23.168373
556 1 30.580818 0.0 25.227724
557 1 32.036958 0.0 23.168431
558 1 32.036958 0.0 24.712901
559 1 32.765109 1.261055 25.227782
560 1 33.493261 0.0 27.287132
561 1 34.949401 0.0 25.227839
562 1 34.949401 0.0 26.772309
563 1 0.000122 2.52225 0.514794
564 1 1.456303 0.0 0.0
565 1 1.456303 2.52225 0.0
566 1 2.184414 1.261125 2.059408
567 1 3.640635 1.261125 0.0
568 1 2.184414 1.261196 0.514852
569 1 2.184414 3.783305 0.514852
570 1 2.912565 2.52225 2.574203
571 1 4.368705 2.52225 0.51491
572 1 4.368746 0.0 2.059408
573 1 4.368746 2.52225 2.059408
574 1 5.096857 1.261125 4.118817
575 1 6.553079 1.261125 2.059408
576 1 5.096898 1.261196 2.574289
577 1 5.096898 3.783305 2.574289
578 1 5.825049 2.52225 4.63364
579 1 7.281189 2.52225 2.574347
580 1 7.281189 0.0 4.118817
581 1 7.281189 2.52225 4.118817
582 1 8.0093 1.261125 6.178225
583 1 9.465522 1.261125 4.118817
584 1 8.009341 1.261196 4.633698
585 1 8.009341 3.783305 4.633698
586 1 8.737411 2.52225 6.692991
587 1 10.193551 2.52225 4.633698
588 1 10.193633 0.0 6.178225
589 1 10.193633 2.52225 6.178225
590 1 10.921744 1.261125 8.237633
591 1 12.377965 1.261125 6.178225
592 1 10.921784 1.261196 6.693106
593 1 10.921784 3.783305 6.693106
594 1 11.649854 2.52225 8.752399
595 1 13.105994 2.52225 6.693106
596 1 13.106076 0.0 8.237633
597 1 13.106076 2.52225 8.237633
598 1 13.834187 1.261125 10.297042
599 1 15.290409 1.261125 8.237633
600 1 13.834228 1.261196 8.752514
601 1 13.834228 3.783305 8.752514
602 1 14.562298 2.52225 10.811807
603 1 16.018438 2.52225 8.752514
604 1 16.018519 0.0 10.297042
605 1 16.018519 2.52225 10.297042
606 1 16.74663 1.261125 12.35645
607 1 18.202852 1.261125 10.297042
608 1 16.746671 1.261196 10.811923
609 1 16.746671 3.783305 10.811923
610 1 17.474741 2.52225 12.871216
611 1 18.930881 2.52225 10.811923
612 1 18.930963 0.0 12.35645
613 1 18.930963 2.52225 12.35645
614 1 19.659074 1.261125 14.415859
615 1 21.115295 1.261125 12.35645
616 1 19.659114 1.261196 12.871331
617 1 19.659114 3.783305 12.871331
618 1 20.387184 2.52225 14.930624
619 1 21.843324 2.52225 12.871331
620 1 21.843406 0.0 14.415859
621 1 21.843406 2.52225 14.415859
622 1 22.571517 1.261125 16.475267
623 1 24.027738 1.261125 14.415859
624 1 22.571558 1.261196 14.93074
625 1 22.571558 3.783305 14.93074
626 1 23.299628 2.52225 16.990033
627 1 24.755768 2.52225 14.93074
628 1 24.755849 0.0 16.475267
629 1 24.755849 2.52225 16.475267
630 1 25.48396 1.261125 18.534675
631 1 26.940182 1.261125 16.475267
632 1 25.484001 1.261196 16.990148
633 1 25.484001 3.783305 16.990148
634 1 26.212153 2.52225 19.049499
635 1 27.668293 2.52225 16.990206
636 1 27.668293 0.0 18.534675
637 1 27.668293 2.52225 18.534675
638 1 28.396403 1.261125 20.594084
639 1 29.852625 1.261125 18.534675
640 1 28.396444 1.261196 19.049556
641 1 28.396444 3.783305 19.049556
642 1 29.124596 2.52225 21.108907
643 1 30.580736 2.52225 19.049614
644 1 30.580736 0.0 20.594084
645 1 30.580736 2.52225 20.594084
646 1 31.308847 1.261125 22.653492
647 1 32.765068 1.261125 20.594084
648 1 31.308888 1.261196 21.108965
649 1 31.308888 3.783305 21.108965
650 1 32.037039 2.52225 23.168316
651 1 33.493179 2.52225 21.109023
652 1 33.493179 0.0 22.653492
653 1 33.493179 2.52225 22.653492
654 1 34.22129 1.261125 24.712901
655 1 34.221331 1.261196 23.168373
656 1 34.221331 3.783305 23.168373
657 1 34.949483 2.52225 25.227724
658 1 3.640635 3.783375 0.0
659 1 4.368787 5.0445 0.514794
660 1 5.824968 2.52225 0.0
661 1 5.824968 5.0445 0.0
662 1 6.553079 3.783375 2.059408
663 1 8.0093 3.783375 0.0
664 1 6.553119 3.783445 0.514881
665 1 6.55316 6.305625 0.514823
666 1 7.281271 5.0445 2.574231
667 1 8.737452 5.04457 0.514881
668 1 8.737411 2.52225 2.059408
669 1 8.737411 5.0445 2.059408
670 1 9.465522 3.783375 4.118817
671 1 10.921744 3.783375 2.059408
672 1 9.465563 3.783445 2.574289
673 1 9.465604 6.305625 2.574231
674 1 10.193633 5.0445 4.633582
675 1 11.649814 5.04457 2.574231
676 1 11.649854 2.52225 4.118817
677 1 11.649854 5.0445 4.118817
678 1 12.377965 3.783375 6.178225
679 1 13.834187 3.783375 4.118817
680 1 12.378006 3.783445 4.633698
681 1 12.378047 6.305625 4.63364
682 1 13.106076 5.0445 6.692991
683 1 14.562257 5.04457 4.63364
684 1 14.562298 2.52225 6.178225
685 1 14.562298 5.0445 6.178225
686 1 15.290409 3.783375 8.237633
687 1 16.74663 3.783375 6.178225
688 1 15.290449 3.783445 6.693106
689 1 15.29049 6.305625 6.693048
690 1 16.018519 5.0445 8.752399
691 1 17.4747 5.04457 6.693048
692 1 17.474741 2.52225 8.237633
693 1 17.474741 5.0445 8.237633
694 1 18.202852 3.783375 10.297042
695 1 19.659074 3.783375 8.237633
696 1 18.202893 3.783445 8.752514
697 1 18.202934 6.305625 8.752457
698 1 18.930963 5.0445 10.811807
699 1 20.387144 5.04457 8.752457
700 1 20.387184 2.52225 10.297042
701 1 20.387184 5.0445 10.297042
702 1 21.115295 3.783375 12.35645
703 1 22.571517 3.783375 10.297042
704 1 21.115336 3.783445 10.811923
705 1 21.115377 6.305625 10.811865
706 1 21.843406 5.0445 12.871216
707 1 23.299587 5.04457 10.811865
708 1 23.299628 2.52225 12.35645
709 1 23.299628 5.0445 12.35645
710 1 24.027738 3.783375 14.415859
711 1 25.48396 3.783375 12.35645
712 1 24.027779 3.783445 12.871331
713 1 24.02782 6.305625 12.871273
714 1 24.755849 5.0445 14.930624
715 1 26.21203 5.04457 12.871273
716 1 26.212071 2.52225 14.415859
717 1 26.212071 5.0445 14.415859
718 1 26.940182 3.783375 16.475267
719 1 28.396403 3.783375 14.415859
720 1 26.940223 3.783445 14.93074
721 1 26.940263 6.305625 14.930682
722 1 27.668374 5.0445 16.99009
723 1 29.124555 5.04457 14.93074
724 1 29.124514 2.52225 16.475267
725 1 29.124514 5.0445 16.475267
726 1 29.852625 3.783375 18.534675
727 1 31.308847 3.783375 16.475267
728 1 29.852666 3.783445 16.990148
729 1 29.852707 6.305625 16.99009
730 1 30.580818 5.0445 19.049499
731 1 32.036998 5.04457 16.990148
732 1 32.036958 2.52225 18.534675
733 1 32.036958 5.0445 18.534675
734 1 32.765068 3.783375 20.594084
735 1 34.22129 3.783375 18.534675
736 1 32.765109 3.783445 19.049556
737 1 32.76515 6.305625 19.049499
738 1 33.493261 5.0445 21.108907
739 1 34.949442 5.04457 19.049556
740 1 34.949401 2.52225 20.594084
741 1 34.949401 5.0445 20.594084
742 1 8.0093 6.305625 0.0
743 1 8.737493 7.56675 0.514823
744 1 10.193633 5.0445 0.0
745 1 10.193633 7.56675 0.0
746 1 10.921744 6.305625 2.059408
747 1 12.377965 6.305625 0.0
748 1 10.921784 6.305695 0.514881
749 1 10.921825 8.827875 0.514823
750 1 11.649854 7.56675 2.574174
751 1 13.106035 7.56682 0.514823
752 1 13.106076 5.0445 2.059408
753 1 13.106076 7.56675 2.059408
754 1 13.834187 6.305625 4.118817
755 1 15.290409 6.305625 2.059408
756 1 13.834228 6.305695 2.574289
757 1 13.834269 8.827875 2.574231
758 1 14.562298 7.56675 4.633582
759 1 16.018479 7.56682 2.574231
760 1 16.018519 5.0445 4.118817
761 1 16.018519 7.56675 4.118817
762 1 16.74663 6.305625 6.178225
763 1 18.202852 6.305625 4.118817
764 1 16.746671 6.305695 4.633698
765 1 16.746712 8.827875 4.63364
766 1 17.474741 7.56675 6.692991
767 1 18.930922 7.56682 4.63364
768 1 18.930963 5.0445 6.178225
769 1 18.930963 7.56675 6.178225
770 1 19.659074 6.305625 8.237633
771 1 21.115295 6.305625 6.178225
772 1 19.659114 6.305695 6.693106
773 1 19.659155 8.827875 6.693048
774 1 20.387184 7.56675 8.752399
775 1 21.843365 7.56682 6.693048
776 1 21.843406 5.0445 8.237633
777 1 21.843406 7.56675 8.237633
778 1 22.571517 6.305625 10.297042
779 1 24.027738 6.305625 8.237633
780 1 22.571558 6.305695 8.752514
781 1 22.571598 8.827875 8.752457
782 1 23.299628 7.56675 10.811807
783 1 24.755808 7.56682 8.752457
784 1 24.755849 5.0445 10.297042
785 1 24.755849 7.56675 10.297042
786 1 25.48396 6.305625 12.35645
787 1 26.940182 6.305625 10.297042
788 1 25.484001 6.305695 10.811923
789 1 25.484042 8.827875 10.811865
790 1 26.212071 7.56675 12.871216
791 1 27.668252 7.56682 10.811865
792 1 27.668293 5.0445 12.35645
793 1 27.668293 7.56675 12.35645
794 1 28.396403 6.305625 14.415859
795 1 29.852625 6.305625 12.35645
796 1 28.396444 6.305695 12.871331
797 1 28.396485 8.827875 12.871273
798 1 29.124596 7.56675 14.930682
799 1 30.580777 7.56682 12.871331
800 1 30.580736 5.0445 14.415859
801 1 30.580736 7.56675 14.415859
802 1 31.308847 6.305625 16.475267
803 1 32.765068 6.305625 14.415859
804 1 31.308888 6.305695 14.93074
805 1 31.308928 8.827875 14.930682
806 1 32.037039 7.56675 16.99009
807 1 33.49322 7.56682 14.93074
808 1 33.493179 5.0445 16.475267
809 1 33.493179 7.56675 16.475267
810 1 34.22129 6.305625 18.534675
811 1 34.221331 6.305695 16.990148
812 1 34.221372 8.827875 16.99009
813 1 34.949483 7.56675 19.049499
814 1 12.377965 8.827875 0.0
815 1 13.106076 10.089 0.514765
816 1 14.562298 7.56675 0.0
817 1 14.562298 10.089 0.0
818 1 15.290409 8.827875 2.059408
819 1 16.74663 8.827875 0.0
820 1 15.290449 8.827945 0.514881
821 1 15.29049 11.350125 0.514823
822 1 16.018519 10.089 2.574174
823 1 17.4747 10.08907 0.514823
824 1 17.474741 7.56675 2.059408
825 1 17.474741 10.089 2.059408
826 1 18.202852 8.827875 4.118817
827 1 19.659074 8.827875 2.059408
828 1 18.202893 8.827945 2.574289
829 1 18.202934 11.350125 2.574231
830 1 18.930963 10.089 4.633582
831 1 20.387144 10.08907 2.574231
832 1 20.387184 7.56675 4.118817
833 1 20.387184 10.089 4.118817
834 1 21.115295 8.827875 6.178225
835 1 22.571517 8.827875 4.118817
836 1 21.115336 8.827945 4.633698
837 1 21.115377 11.350125 4.63364
838 1 21.843406 10.089 6.692991
839 1 23.299587 10.08907 4.63364
840 1 23.299628 7.56675 6.178225
841 1 23.299628 10.089 6.178225
842 1 24.027738 8.827875 8.237633
843 1 25.48396 8.827875 6.178225
844 1 24.027779 8.827945 6.693106
845 1 24.02782 11.350125 6.693048
846 1 24.755849 10.089 8.752399
847 1 26.21203 10.08907 6.693048
848 1 26.212071 7.56675 8.237633
849 1 26.212071 10.089 8.237633
850 1 26.940182 8.827875 10.297042
851 1 28.396403 8.827875 8.237633
852 1 26.940223 8.827945 8.752514
853 1 26.940263 11.350125 8.752457
854 1 27.668293 10.089 10.811807
855 1 29.124473 10.08907 8.752457
856 1 29.124514 7.56675 10.297042
857 1 29.124514 10.089 10.297042
858 1 29.852625 8.827875 12.35645
859 1 31.308847 8.827875 10.297042
860 1 29.852666 8.827945 10.811923
861 1 29.852707 11.350125 10.811865
862 1 30.580818 10.089 12.871273
863 1 32.036998 10.08907 10.811923
864 1 32.036958 7.56675 12.35645
865 1 32.036958 10.089 12.35645
866 1 32.765068 8.827875 14.415859
867 1 34.22129 8.827875 12.35645
868 1 32.765109 8.827945 12.871331
869 1 32.76515 11.350125 12.871273
870 1 33.493261 10.089 14.930682
871 1 34.949442 10.08907 12.871331
872 1 34.949401 7.56675 14.415859
873 1 34.949401 10.089 14.415859
874 1 16.74663 11.350125 0.0
875 1 17.474741 12.61125 0.514765
876 1 18.930963 10.089 0.0
877 1 18.930963 12.61125 0.0
878 1 19.659074 11.350125 2.059408
879 1 21.115295 11.350125 0.0
880 1 19.659114 11.350195 0.514881
881 1 19.659155 13.872374 0.514823
882 1 20.387184 12.61125 2.574174
883 1 21.843365 12.61132 0.514823
884 1 21.843406 10.089 2.059408
885 1 21.843406 12.61125 2.059408
886 1 22.571517 11.350125 4.118817
887 1 24.027738 11.350125 2.059408
888 1 22.571558 11.350195 2.574289
889 1 22.571598 13.872374 2.574231
890 1 23.299628 12.61125 4.633582
891 1 24.755808 12.61132 2.574231
892 1 24.755849 10.089 4.118817
893 1 24.755849 12.61125 4.118817
894 1 25.48396 11.350125 6.178225
895 1 26.940182 11.350125 4.118817
896 1 25.484001 11.350195 4.633698
897 1 25.484042 13.872374 4.63364
898 1 26.212071 12.61125 6.692991
899 1 27.668252 12.61132 4.63364
900 1 27.668293 10.089 6.178225
901 1 27.668293 12.61125 6.178225
902 1 28.396403 11.350125 8.237633
903 1 29.852625 11.350125 6.178225
904 1 28.396444 11.350195 6.693106
905 1 28.396485 13.872374 6.693048
906 1 29.124514 12.61125 8.752399
907 1 30.580695 12.61132 6.693048
908 1 30.580736 10.089 8.237633
909 1 30.580736 12.61125 8.237633
910 1 31.308847 11.350125 10.297042
911 1 32.765068 11.350125 8.237633
912 1 31.308888 11.350195 8.752514
913 1 31.308928 13.872374 8.752457
914 1 32.037039 12.61125 10.811865
915 1 33.49322 12.61132 8.752514