LAMMPS data file from restart file: timestep = 1, procs = 1

4639 atoms

3 atom types

0.0000000000000000e+00 2.8536000000000001e+01 xlo xhi
0.0000000000000000e+00 2.8536000000000001e+01 ylo yhi
-8.0000000000000000e+01 1.0738700000000000e+02 zlo zhi

Masses

1 12.01
2 2.0014
3 3.0160

 Atoms

1 2 0.269824 0.965165 -6.49957
2 2 1.19964 1.11839 -4.17467
3 1 1.40946 0.943858 -3.10387
4 2 2.02593 1.73818 -2.6609
5 2 1.86982 2.96188 -1.40245
6 2 2.86494 1.51765 -0.77012
7 1 0.743148 1.47318 -0.129555
8 1 3.01617 0.669405 -0.179481
9 2 0.935546 1.09533 -1.16471
10 2 3.34834 3.31227 -0.394325
11 1 2.63654 3.70896 -1.08037
12 2 1.47722 2.23804 0.15944
13 1 2.74347 0.00712912 3.09773
14 1 0.110964 1.28646 2.06726
15 2 2.5783 1.8295 2.01138
16 1 4.0732 0.534779 2.61564
17 1 2.2956 1.95561 3.0388
18 2 4.27067 2.02606 0.922103
19 1 3.98236 0.984968 1.01563
20 2 2.76449 3.39076 1.41082
21 2 4.3151 3.25136 2.2124
22 1 0.868052 1.42021 3.41822
23 1 3.73557 3.88366 2.83943
24 2 2.00811 0.819824 3.5996
25 2 5.32422 3.65199 0.968556
26 1 5.66657 3.91659 4.7322
27 1 0.457039 0.21819 13.6716
28 1 5.23931 0.0696689 1.5034
29 1 3.96582 3.81648 6.52368
30 1 2.27811 0.325684 4.68885
31 1 0.41843 3.83805 6.61286
32 1 4.90458 1.14563 3.82419
33 1 3.08057 2.96027 3.93667
34 1 4.01258 2.02545 4.75467
35 1 4.83669 2.90838 5.71533
36 1 1.34036 2.91905 5.67268
37 1 3.13362 1.15726 5.61538
38 1 2.2143 2.03134 6.53782
39 1 0.374141 2.03334 4.73121
40 1 3.94633 0.29099 6.54178
41 1 0.439669 0.242766 6.47631
42 1 2.19336 3.80783 4.84232
43 2 5.33753 3.10066 4.01473
44 1 0.448172 3.8222 10.1052
45 1 3.98862 3.86498 10.1172
46 1 4.01825 2.06401 8.38135
47 1 4.92951 2.96364 9.20455
48 1 4.90486 1.13012 7.44917
49 1 1.36045 2.90747 9.20896
50 1 3.14283 1.16111 9.26425
51 1 1.35604 1.12091 7.4613
52 1 3.10782 2.96301 7.46842
53 1 0.458399 1.97311 8.36752
54 1 2.23824 0.199442 8.39859
55 1 2.20828 2.04549 10.1264
56 1 3.98849 0.283565 10.1415
57 1 0.480883 0.268672 10.1941
58 1 2.22285 3.82993 8.3452
59 1 4.87668 1.12591 10.9966
60 1 1.35129 1.1574 11.0402
61 1 4.0599 2.02018 11.8877
62 1 1.34972 2.91194 12.8522
63 1 2.26629 3.76176 11.9385
64 1 3.1816 1.14059 12.8422
65 1 4.92065 2.90461 12.8227
66 1 3.15927 2.88879 11.0276
67 1 0.457439 2.05774 11.9225
68 1 2.25048 0.233773 11.9256
69 1 4.9114 1.1168 14.6445
70 1 1.38742 1.0892 14.6326
71 1 3.11863 2.93972 14.6134
72 1 4.93621 2.86334 16.401
73 1 4.06003 1.97228 15.4885
74 1 1.37396 2.88274 16.4194
75 1 3.12798 1.10641 16.3838
76 1 0.489075 2.02795 15.4941
77 1 2.24277 0.186562 15.5245
78 1 2.23562 3.79687 15.5229
79 1 4.02417 3.78871 13.7129
80 1 3.22288 1.13095 27.0353
81 1 0.453072 3.80236 13.7153
82 1 4.0399 3.78432 17.2671
83 1 2.23056 0.215938 19.098
84 1 4.0048 1.98147 19.0881
85 1 4.88575 1.08108 18.1973
86 1 1.38372 1.15423 18.1915
87 1 2.24375 2.01373 17.2807
88 1 3.15388 2.89765 18.1804
89 1 1.3734 2.91908 19.9638
90 1 4.97931 2.89001 19.9801
91 1 3.14399 1.07316 20.0012
92 1 0.507281 1.99992 19.124
93 1 0.496457 0.204167 17.3145
94 1 4.01824 0.174872 17.2837
95 1 2.31293 3.76646 19.113
96 1 0.444519 3.80718 17.3187
97 1 4.05307 3.77022 20.8684
98 1 2.31506 3.8541 22.6604
99 1 2.26983 0.250829 22.6429
100 1 3.16284 2.89217 21.7642
101 1 2.28091 1.95694 20.8707
102 1 1.40765 1.13259 21.78
103 1 4.95436 1.18541 21.7372
104 1 4.08781 2.05916 22.6529
105 1 0.494104 2.00767 22.6531
106 1 0.478569 0.248777 20.8957
107 1 4.04755 0.215267 20.8893
108 1 3.17015 1.11409 23.5231
109 1 1.38923 2.9488 23.5301
110 1 4.98283 2.91335 23.5189
111 1 0.514132 3.79508 20.8687
112 1 1.34574 1.12446 25.3111
113 1 4.09469 2.00855 26.2092
114 1 0.532296 1.9783 26.2292
115 1 2.26902 0.241873 26.21
116 1 2.2647 2.04675 24.4436
117 1 2.28838 3.72156 26.2707
118 1 0.477335 0.25914 24.4053
119 1 3.175 2.89402 25.3665
120 1 4.09548 0.264199 24.4017
121 1 0.481697 3.7866 24.3715
122 1 4.06474 3.76524 24.4238
123 1 5.01247 1.18637 25.2958
124 1 1.42634 2.83701 27.089
125 1 5.03726 2.81374 27.065
126 1 2.27394 1.97489 13.7389
127 1 4.02148 0.276033 13.7438
128 1 2.85718 6.94433 -10.7221
129 2 3.44685 7.79159 -11.4065
130 2 1.77969 6.63038 -10.6951
131 1 3.30331 5.62585 -11.1296
132 2 2.88698 4.90764 -11.615
133 2 3.13985 6.39878 -8.15169
134 1 3.16178 7.58346 -8.11605
135 1 2.53948 8.03155 -7.0568
136 2 0.773608 7.84505 -1.69593
137 2 4.22291 7.75718 -5.66783
138 2 1.16357 6.26336 -4.42031
139 1 0.884681 5.70688 -3.57731
140 2 2.82461 7.59454 -3.20085
141 1 2.58494 7.90155 -1.1278
142 2 3.98264 4.53121 -3.25447
143 1 5.61474 7.83546 -1.99685
144 1 1.37056 6.17586 -2.38595
145 1 1.00627 5.56156 -1.13478
146 1 4.87239 7.56321 -0.790065
147 2 3.43302 6.13364 -0.375496
148 1 2.02445 4.91421 -0.358219
149 1 3.97066 7.001 0.06159
150 2 5.27335 5.73832 -0.943834
151 1 2.34047 7.20889 -2.30105
152 1 3.44453 4.18225 -2.34997
153 1 1.90724 7.69017 0.0777414
154 1 5.67691 5.81912 0.033384
155 1 3.18561 4.62379 12.7938
156 2 5.47147 7.52594 1.92913
157 1 5.31958 7.9476 -5.74876
158 1 2.39785 4.23862 1.92723
159 1 1.82197 6.61983 1.21077
160 1 2.17872 5.30855 0.944779
161 1 3.91701 7.11918 2.83582
162 1 0.823112 7.37374 2.33704
163 1 3.75111 7.14552 1.47059
164 2 4.08232 5.00403 1.06786
165 1 5.0519 5.43145 1.17277
166 2 2.43173 5.67004 3.1143
167 1 5.53418 5.31917 2.49668
168 1 4.70772 4.74333 3.67024
169 1 4.97239 8.06035 3.67396
170 1 1.28416 4.64957 4.02672
171 1 0.375381 5.49052 4.82353
172 1 3.04347 6.35944 3.76523
173 1 4.86421 6.47428 5.64102
174 1 3.95942 5.55004 4.7225
175 1 1.29721 6.39453 5.68057
176 1 2.09828 7.22363 4.65384
177 1 3.09855 4.68791 5.65135
178 1 3.98063 7.29546 6.5649
179 1 2.21825 5.59288 6.54649
180 1 0.427012 7.30667 6.58313
181 2 5.24869 4.29114 -7.97871
182 1 1.28056 8.11893 3.72228
183 1 0.480626 7.33922 10.1445
184 1 0.461197 5.58211 8.3551
185 1 4.96251 6.45162 9.23522
186 1 4.04206 5.61593 8.33419
187 1 4.86852 4.72112 7.43467
188 1 3.08423 6.41739 7.47708
189 1 3.11762 4.70836 9.27578
190 1 1.30121 4.69648 7.48673
191 1 1.36586 6.44905 9.23484
192 1 2.23297 7.34086 8.36442
193 1 2.27942 5.58487 10.1651
194 1 4.01163 7.35885 10.1077
195 1 4.94653 4.69664 11.0056
196 1 2.23517 7.40425 11.9278
197 1 1.35304 4.67354 11.0252
198 1 4.08187 5.60669 11.9105
199 1 1.39257 6.47391 12.7642
200 1 4.89356 6.51937 12.8191
201 1 3.10894 6.48679 11.0279
202 1 0.455602 5.56363 11.9118
203 1 3.07709 8.05617 5.64689
204 1 1.11288 4.14464 2.76584
205 1 2.2537 5.56205 13.6883
206 1 3.56539 8.02494 -9.64057
207 1 0.475988 7.35862 13.6875
208 1 4.92458 4.67897 14.6118
209 1 1.36028 4.70393 14.6137
210 1 3.14741 6.50222 14.5413
211 1 4.91276 6.46748 16.3664
212 1 3.99899 5.59682 15.4723
213 1 2.23179 7.41023 15.4435
214 1 3.13042 4.6852 16.3824
215 1 1.35881 6.44534 16.3946
216 1 0.471434 5.5716 15.4899
217 1 3.12489 4.64211 27.1399
218 1 4.01717 7.33902 17.2598
219 1 4.02014 5.5557 19.0401
220 1 4.92579 4.65523 18.1615
221 1 1.39491 4.65394 18.2135
222 1 2.2634 5.58028 17.2371
223 1 2.26806 7.3285 19.0549
224 1 3.11391 6.48015 18.1505
225 1 1.36021 6.4615 19.95
226 1 3.13495 4.67321 19.9774
227 1 4.93871 6.44691 19.9735
228 1 0.491015 7.38714 17.2872
229 1 0.436456 5.56818 19.0898
230 1 0.47019 5.6237 22.6501
231 1 0.487012 7.37459 20.8835
232 1 3.16236 6.53089 21.7508
233 1 2.25477 7.36696 22.6324
234 1 2.24267 5.56054 20.8831
235 1 1.38271 4.70184 21.7689
236 1 4.91885 4.69353 21.7431
237 1 4.08193 5.60432 22.6551
238 1 4.03771 7.35411 20.8411
239 1 3.18647 4.70378 23.5445
240 1 4.94667 6.45793 23.5284
241 1 1.37235 6.48129 23.6125
242 1 4.97387 6.40246 27.0792
243 1 2.31501 5.57515 24.4329
244 1 3.16714 6.49222 25.326
245 1 4.91488 4.62148 25.3054
246 1 0.462748 5.61173 26.201
247 1 1.38451 4.62927 25.3198
248 1 4.0755 7.35988 24.437
249 1 2.27406 7.40188 26.2012
250 1 4.06127 5.56678 26.2241
251 1 0.474513 7.41443 24.4704
252 1 1.35622 6.4791 27.0969
253 1 3.99603 7.39889 13.6987
254 2 4.8775 10.449 -15.0207
255 1 3.99891 11.0931 -14.9757
256 1 3.02721 11.7267 -14.5868
257 2 2.77171 8.67755 -9.953
258 1 1.40224 10.0228 12.7567
259 2 4.49023 12.1176 1.6425
260 2 1.42498 10.7352 -6.37117
261 1 1.44515 11.4218 -5.48096
262 1 1.93819 9.39448 -4.82951
263 1 2.72699 9.46397 -3.64745
264 1 3.96737 8.90625 -3.52235
265 2 0.948586 9.91911 -4.65758
266 1 3.63134 11.3517 -3.93971
267 1 2.45013 11.4292 -4.57974
268 1 4.78555 11.1849 -3.21725
269 1 5.65785 10.2944 -1.00576
270 1 5.14666 8.27389 -3.25382
271 1 1.3768 8.26838 11.0281
272 2 2.38913 9.91691 -2.71637
273 1 2.16419 8.79292 -6.02998
274 1 4.94843 10.0044 12.7859
275 1 2.04393 12.0949 -1.00015
276 1 4.91014 11.4036 -1.72475
277 2 1.9975 11.5239 -1.866
278 2 3.86825 11.5876 -1.20541
279 2 3.13116 8.86484 -1.10968
280 2 5.11105 9.31892 -1.12733
281 1 1.60508 11.6179 0.26037
282 2 4.99973 11.3705 0.256227
283 1 4.90534 8.21384 11.0199
284 1 2.25329 10.9323 11.9177
285 1 1.39246 11.8252 11.0172
286 1 0.970047 8.39423 1.06975
287 2 3.9561 9.84523 1.70642
288 1 4.96168 9.48531 1.4615
289 1 2.42871 11.0415 1.31721
290 1 2.47718 8.87026 2.98677
291 1 0.464426 10.5874 2.77003
292 1 2.44612 11.4308 2.5815
293 1 5.33743 11.9003 2.45392
294 2 3.9963 10.5016 3.21804
295 2 4.76683 8.61839 0.855186
296 2 2.6683 8.78558 1.91219
297 2 1.22316 9.96807 2.33146
298 2 3.27928 11.9703 2.99122
299 2 0.533498 9.37849 0.906185
300 1 0.50996 9.16564 11.8976
301 1 3.18049 11.8628 12.7615
302 1 1.36436 11.5903 3.75707
303 1 3.19252 10.0599 3.80891
304 2 4.07278 9.70132 5.35702
305 1 4.92607 11.8361 3.89029
306 1 0.437302 9.03788 4.67472
307 1 3.56646 8.51599 4.18232
308 1 4.96448 10.1423 5.69246
309 1 3.19716 11.8138 5.64645
310 1 1.40128 9.92347 5.59375
311 1 2.35081 10.8229 4.7167
312 1 2.30907 9.05793 6.53752
313 1 0.514859 10.8747 6.49525
314 1 4.01106 10.9434 6.64063
315 1 4.82664 8.19987 7.46287
316 1 0.454531 9.12479 8.39385
317 1 3.14287 9.98748 7.44913
318 1 4.92807 11.7717 7.49248
319 1 4.01824 9.1653 8.3765
320 1 4.88176 10.0659 9.21376
321 1 3.17578 11.8183 9.22856
322 1 1.39668 11.7772 7.38631
323 1 1.33438 10.0228 9.24448
324 1 2.24252 10.9 8.34758
325 1 0.472158 10.9598 10.1249
326 1 4.02567 10.9411 10.137
327 1 2.2381 9.16955 10.1234
328 1 3.13355 8.21694 9.23144
329 1 1.31759 8.26489 7.52038
330 1 3.15258 10.0513 11.0107
331 1 4.88814 11.8133 11.0273
332 1 4.05411 9.14247 11.945
333 1 3.13533 8.28526 12.7687
334 1 5.69495 10.5824 0.581945
335 1 0.489613 10.9352 13.6482
336 1 2.27037 9.19626 13.6539
337 1 4.1056 10.9613 13.6668
338 2 4.59289 8.23538 -9.34713
339 2 5.68656 10.8795 2.35593
340 1 4.95189 11.8647 14.6189
341 1 1.36153 11.822 14.5276
342 1 3.13587 10.0559 14.5716
343 1 4.94981 10.0431 16.365
344 1 4.05203 9.12055 15.4585
345 1 3.15549 11.8521 16.3501
346 1 1.34962 10.0551 16.3878
347 1 2.25453 10.9844 15.4302
348 1 0.50786 9.20025 15.4372
349 1 4.90851 8.25132 14.5467
350 1 1.37566 8.24959 14.5954
351 1 3.12366 8.26396 16.3904
352 1 4.95 8.19624 18.1597
353 1 1.38243 8.22958 18.2218
354 1 4.92512 11.7769 18.1485
355 1 4.04036 10.9126 17.2369
356 1 4.04911 9.12258 19.0303
357 1 1.31222 11.8326 18.1358
358 1 2.26323 10.9661 19.0588
359 1 2.19474 9.17324 17.2572
360 1 3.18121 10.0637 18.1612
361 1 4.88094 10.072 19.9256
362 1 1.32842 10.0257 19.9495
363 1 3.12178 11.8718 19.9656
364 1 0.41954 10.9869 17.262
365 1 0.489866 9.11264 19.0593
366 1 3.15925 8.26197 19.9198
367 1 3.14377 8.24356 23.5473
368 1 1.39454 8.26879 21.7938
369 1 3.15062 10.0331 21.6786
370 1 2.25176 9.0971 20.8152
371 1 2.27269 10.9301 22.6294
372 1 1.36398 11.7812 21.7257
373 1 4.00991 9.14968 22.6121
374 1 4.00922 11.0007 20.8078
375 1 4.9356 11.8085 21.7507
376 1 0.45648 10.913 20.8126
377 1 0.447113 9.16507 22.6667
378 1 1.37502 10.0421 23.5621
379 1 4.93961 10.0265 23.5466
380 1 3.14576 11.835 23.5703
381 1 4.89712 8.25084 21.7183
382 1 1.32275 8.31821 25.3623
383 1 0.445505 10.9334 24.4031
384 1 3.18471 11.8533 27.0307
385 1 0.449942 9.19228 26.2771
386 1 1.27846 10.131 27.1409
387 1 2.23115 10.9759 26.2512
388 1 4.03253 10.9184 24.49
389 1 1.34011 11.8443 25.3025
390 1 2.23421 9.19535 24.4654
391 1 3.9933 9.18645 26.31
392 1 4.9739 11.8199 25.3478
393 1 3.12094 10.0709 25.3906
394 1 4.95842 8.26941 25.3779
395 1 4.89782 10.0988 27.1122
396 1 3.07259 8.25145 27.1699
397 2 4.67384 15.0843 -16.495
398 1 3.60804 14.9737 -16.0563
399 2 2.4323 12.2944 -13.8822
400 2 2.79142 15.3546 -16.7806
401 2 3.3573 13.8962 -15.9396
402 1 3.60724 15.7119 -14.6839
403 1 4.39726 14.9083 -10.9247
404 1 2.72777 16.0374 -12.4767
405 2 3.96067 13.866 -11.0281
406 1 3.74468 16.0327 -13.4364
407 1 3.48393 15.8875 -10.6479
408 2 2.47802 15.8022 -10.3071
409 1 0.849436 14.5097 -4.35276
410 1 1.83589 14.8944 -3.49908
411 1 0.040907 13.7613 -5.1849
412 1 3.78114 16.029 -4.71723
413 1 5.04683 16.0324 -4.18772
414 1 0.478721 12.4 -5.39945
415 2 1.62374 16.153 -0.143046
416 2 4.3849 15.9525 -2.26188
417 1 2.19508 14.1262 -2.37843
418 1 2.31148 13.4707 -1.14416
419 2 4.99543 14.4253 -0.579223
420 2 0.747213 14.7361 -1.31351
421 1 2.66054 14.0502 0.104512
422 1 5.27729 16.0433 -2.8322
423 2 4.23006 16.0107 -0.259285
424 2 5.35393 12.3761 -1.58529
425 1 0.477717 16.2612 11.9004
426 1 4.9247 15.3766 10.9959
427 1 0.440007 12.4449 0.835549
428 1 4.08026 12.7527 11.9175
429 1 4.94305 14.1421 0.482567
430 2 0.683044 14.6203 0.587088
431 2 2.97393 15.5603 2.38297
432 2 4.10659 15.0475 3.43068
433 2 4.68703 13.6022 2.88357
434 1 3.71257 13.7115 2.38742
435 1 3.71162 13.9794 1.02845
436 1 0.83728 14.3773 2.79139
437 2 1.89768 14.2829 2.45967
438 2 0.924407 13.2002 1.47556
439 1 0.159672 14.8796 1.49025
440 1 2.35757 16.2567 2.88707
441 2 2.16289 13.1626 3.6643
442 1 5.02246 15.3755 3.84834
443 1 1.47539 15.3974 3.84838
444 1 3.12524 13.524 3.86868
445 1 4.07827 12.678 4.76911
446 1 4.95141 13.5795 5.6295
447 1 1.39289 13.5947 5.57711
448 1 2.32716 14.5304 4.78878
449 1 3.1733 15.4187 5.65828
450 1 2.22537 12.7072 6.4879
451 1 4.04692 14.4779 6.59509
452 1 0.498087 14.4723 6.51897
453 1 0.525341 12.5817 4.68189
454 1 1.37163 13.6799 12.7431
455 1 4.0679 16.2719 11.8563
456 1 1.35753 15.3707 10.976
457 1 4.05806 14.4645 10.0809
458 1 4.04708 12.7311 8.32151
459 1 4.94189 13.5719 9.2475
460 1 4.94929 15.3396 7.47168
461 1 1.38939 13.6081 9.18027
462 1 2.26268 14.5062 8.29178
463 1 3.14552 15.3785 9.22177
464 1 1.38983 15.4015 7.46086
465 1 3.11552 13.6154 7.41869
466 1 0.452114 12.7105 8.30115
467 1 0.442542 14.4497 10.1008
468 1 2.30896 12.718 10.0818
469 1 2.29599 16.2723 6.55034
470 1 2.22778 16.2684 13.6781
471 1 0.481537 12.709 11.9063
472 1 2.28384 14.4736 11.8447
473 1 3.16518 13.5907 11.0054
474 1 3.11195 15.3407 12.7689
475 1 4.91374 13.6417 12.7928
476 1 0.496363 16.2873 4.6568
477 1 4.08636 16.2558 8.34333
478 1 0.0962759 13.1327 3.27921
479 1 2.58024 16.1973 -3.7771
480 1 0.459057 16.291 8.3168
481 1 0.505206 14.4965 13.6691
482 2 3.56533 15.9158 -5.77047
483 2 4.07189 16.3074 1.41737
484 1 4.0027 16.3088 4.71944
485 1 2.2095 16.2544 10.0731
486 1 4.99132 15.4191 14.5455
487 1 1.34658 15.3505 14.5685
488 1 3.16601 13.6125 14.6256
489 1 2.25515 14.5061 15.4496
490 1 4.94581 13.6306 16.3506
491 1 4.06684 12.7557 15.5038
492 1 1.36432 13.6148 16.3389
493 1 3.15223 15.4031 16.3752
494 1 0.480912 12.7166 15.4669
495 1 0.475832 16.2635 19.0909
496 1 3.24296 15.3751 27.0319
497 1 2.22145 16.2893 24.4441
498 1 4.0467 12.7245 19.0574
499 1 4.96214 15.3834 18.1455
500 1 4.06739 14.549 17.2108
501 1 1.38091 15.3829 18.2112
502 1 2.32304 14.4652 19.0939
503 1 2.24757 12.7518 17.2587
504 1 3.16109 13.6168 18.1082
505 1 4.90274 13.645 19.9487
506 1 1.37946 13.5746 19.9485
507 1 3.19235 15.4048 19.9491
508 1 0.476316 12.7067 19.0533
509 1 0.454009 14.4527 17.2533
510 1 4.0873 16.2783 19.0277
511 1 0.503776 16.2978 26.2577
512 1 2.26109 16.2939 17.2384
513 1 2.279 16.281 20.8485
514 1 3.12789 13.5951 21.7551
515 1 2.24618 12.6771 20.8505
516 1 2.21856 14.4738 22.6419
517 1 1.42407 15.3812 21.7453
518 1 4.03773 14.505 20.858
519 1 4.96424 15.3343 21.7858
520 1 4.03976 12.6917 22.6494
521 1 0.459076 12.6864 22.64
522 1 0.521551 14.4471 20.8309
523 1 1.34709 13.5748 23.5383
524 1 3.10507 15.4122 23.5525
525 1 4.94095 13.5667 23.5232
526 1 4.03084 16.2525 22.6084
527 1 1.34503 15.3799 25.3173
528 1 4.06791 16.2726 15.4665
529 1 4.92917 13.6106 27.0323
530 1 0.463744 16.2308 15.4392
531 1 0.475394 14.495 24.4317
532 1 4.04192 14.4863 24.409
533 1 1.42438 13.5568 27.063
534 1 2.28548 14.5158 26.1972
535 1 4.04918 12.7128 26.1638
536 1 0.465167 12.7525 26.1885
537 1 3.16222 13.6206 25.2896
538 1 4.9698 15.4026 25.3187
539 1 2.23047 12.7146 24.431
540 1 4.08796 14.5037 13.7123
541 1 0.487046 16.2199 22.6396
542 1 4.07305 16.2555 26.1871
543 1 2.27465 12.7549 13.7006
544 2 3.87562 16.8798 -10.7441
545 2 4.67846 16.335 -13.0455
546 2 1.73017 18.8325 -4.4736
547 2 4.43896 19.9371 -3.51224
548 2 1.91599 16.9329 -4.34803
549 1 2.6202 19.0134 -3.76516
550 1 3.7152 19.2169 -3.02816
551 1 1.37338 17.1788 12.7523
552 2 2.89105 16.6043 -2.85575
553 2 0.129721 16.3661 -1.72472
554 2 0.464412 19.8333 -1.36242
555 1 4.09384 18.7569 -1.78623
556 1 4.37859 18.1459 -0.524413
557 1 4.89699 16.8512 -0.429493
558 1 0.342459 17.9265 -0.241611
559 2 2.50132 17.6999 -0.0609583
560 1 1.59127 17.1854 0.296234
561 1 3.14409 17.1385 10.9727
562 1 3.98157 18.0331 13.6815
563 2 0.577767 16.7239 1.98483
564 2 1.61481 18.249 2.34399
565 1 4.03908 17.9736 2.87025
566 1 4.54679 18.9959 0.634995
567 1 4.83552 16.9097 1.98212
568 1 3.61938 19.0597 1.86687
569 1 1.60046 17.1213 1.86822
570 1 1.90091 19.4871 2.62351
571 1 0.378015 18.2252 2.97279
572 2 5.30155 17.4819 1.2507
573 1 5.61616 20.0515 1.09637
574 1 4.93138 18.9763 10.9556
575 1 0.478901 18.0463 13.644
576 2 3.54267 20.1556 3.92
577 1 1.34523 18.9568 4.0098
578 1 0.499486 18.069 6.58738
579 1 0.562168 19.7111 4.97968
580 1 4.99697 18.8694 3.72462
581 1 3.15739 17.153 3.83042
582 1 4.09883 19.7477 4.75687
583 1 4.95176 17.1344 5.60065
584 1 2.27551 18.0815 4.7451
585 1 3.17625 18.9135 5.64867
586 1 1.39289 17.1871 5.65404
587 1 2.29529 19.8185 6.61559
588 1 4.04588 18.0459 6.52107
589 1 1.39953 18.9632 10.9706
590 1 0.527574 19.8427 8.28505
591 1 3.21339 17.1384 7.41338
592 1 4.04616 19.8148 8.29084
593 1 4.94269 18.9114 7.40876
594 1 4.98572 17.1676 9.24402
595 1 2.26214 18.046 8.33383
596 1 3.15586 18.9334 9.20271
597 1 1.40999 18.9261 7.47511
598 1 1.32057 17.1447 9.22696
599 1 2.26604 19.8516 10.1065
600 1 4.07352 18.0952 10.0669
601 1 0.489298 18.0945 10.0722
602 1 0.479666 19.8734 11.899
603 1 4.91532 17.2041 12.7432
604 1 2.2552 18.0304 11.8623
605 1 3.11273 18.9336 12.7988
606 1 4.08778 19.8286 11.9171
607 1 4.93583 18.945 14.5939
608 1 1.33742 18.9572 14.6107
609 1 3.17154 17.1399 14.5742
610 1 4.03937 19.83 15.4876
611 1 4.94564 17.136 16.3307
612 1 3.13494 18.9005 16.3763
613 1 2.24486 18.0068 15.5277
614 1 1.33167 17.1465 16.364
615 1 0.458125 19.8176 15.497
616 1 3.14147 17.1607 18.1728
617 1 4.03505 19.8337 19.0593
618 1 4.94076 18.9411 18.1539
619 1 4.03302 18.074 17.2761
620 1 1.3691 18.9031 18.1873
621 1 2.26939 18.0301 19.0725
622 1 2.28265 19.8237 17.2425
623 1 1.38043 17.1828 19.9618
624 1 3.14955 18.9503 19.9494
625 1 4.89934 17.1515 19.9391
626 1 0.473813 19.8174 19.0385
627 1 0.460625 18.0527 17.3055
628 1 0.470684 18.0796 20.7856
629 1 3.10572 17.186 21.7316
630 1 2.26586 19.8281 20.8832
631 1 2.24897 18.0776 22.599
632 1 1.35941 18.9627 21.6961
633 1 4.04011 18.08 20.8622
634 1 4.96302 18.9777 21.7781
635 1 4.031 19.8468 22.6175
636 1 0.517216 19.8371 22.5953
637 1 4.91264 17.1353 23.5166
638 1 3.15656 18.9609 23.4717
639 1 1.35149 17.1241 23.5627
640 1 2.24047 19.8097 13.7292
641 1 4.08002 19.8418 26.2215
642 1 2.27988 19.8501 24.3888
643 1 4.95048 17.1413 27.0385
644 1 4.92795 19.0014 25.3507
645 1 2.26638 18.06 26.2541
646 1 1.34109 18.952 25.3019
647 1 0.474039 19.8603 26.1651
648 1 4.01786 18.0691 24.4127
649 1 0.481172 18.0693 24.4037
650 1 3.15278 17.1901 25.3497
651 1 1.45764 17.1232 27.1175
652 1 3.19156 18.9909 27.1399
653 1 5.39341 22.5685 -3.21639
654 1 5.69461 22.3618 -4.48782
655 1 5.3566 22.9853 -1.88153
656 1 4.53137 22.4584 -0.861864
657 2 4.03026 21.528 -1.02548
658 2 1.49116 22.3006 -0.267463
659 1 4.10962 23.2694 0.145092
660 1 0.782051 23.0184 0.129069
661 2 4.15335 24.323 0.0259225
662 1 0.130733 23.8612 -0.92499
663 1 4.04657 21.6039 13.6964
664 2 5.60092 23.9227 0.850078
665 2 0.0571421 20.6828 1.8846
666 1 1.12033 20.6901 1.70666
667 2 1.36344 23.6883 0.819812
668 2 5.09606 23.9277 2.42592
669 2 2.68264 22.608 1.00042
670 1 4.09673 21.7359 2.50716
671 1 3.29054 23.9999 2.5033
672 1 3.6122 22.8212 1.62237
673 2 5.13808 21.2454 2.49472
674 2 1.7898 23.1945 3.09938
675 2 4.71031 20.8081 0.94229
676 2 1.44679 21.7825 1.8075
677 2 0.629456 20.9004 3.48086
678 2 5.61826 22.223 0.905989
679 1 1.22252 22.6297 3.7935
680 1 1.36646 24.3263 5.66734
681 1 4.95761 24.2243 5.63511
682 1 1.51033 20.7582 5.68824
683 1 4.93988 20.6659 5.60175
684 1 4.94472 22.4238 3.8291
685 1 4.06583 23.344 4.72115
686 1 2.20859 21.7221 4.71339
687 1 3.127 22.5445 5.61368
688 1 2.2802 23.4266 6.55821
689 1 4.06165 21.6061 6.48822
690 1 0.464679 23.4806 4.82476
691 1 0.51549 21.6539 6.53617
692 2 2.53598 21.4237 3.77166
693 1 3.1825 24.3152 7.43368
694 1 4.94403 20.7362 9.18026
695 1 3.17161 20.7338 7.45689
696 1 1.41391 20.7491 9.21912
697 1 4.05517 23.4022 8.29718
698 1 4.92895 22.4856 7.38979
699 1 2.285 21.6408 8.38122
700 1 3.17816 22.512 9.20961
701 1 1.41854 22.5358 7.42945
702 1 0.553295 23.4315 8.29096
703 1 4.07573 21.6178 10.0606
704 1 0.542992 21.6306 10.1197
705 1 2.27431 23.4203 10.1539
706 1 4.97847 24.3051 9.19883
707 1 1.38297 24.3388 9.19968
708 1 4.08914 23.3624 11.9473
709 1 1.37076 20.7155 12.8337
710 1 3.16473 22.5027 12.8225
711 1 4.95351 22.5115 11.035
712 1 3.14609 20.7584 10.962
713 1 2.28133 21.5774 11.9515
714 1 1.4125 22.5489 11.0461
715 1 4.93996 20.7267 12.7947
716 1 1.37287 24.3153 12.817
717 1 4.92726 24.3283 12.7602
718 1 0.449403 23.4411 11.9432
719 1 3.17714 24.3034 11.0202
720 1 3.38316 24.3965 3.8823
721 2 1.25746 20.4953 0.637436
722 2 2.93278 21.0234 1.32848
723 1 3.08155 20.4985 2.20151
724 1 4.93779 22.4911 14.6184
725 1 1.36156 22.4933 14.5749
726 1 2.23305 21.6192 15.4868
727 1 4.0244 23.3884 15.503
728 1 3.09783 22.5334 16.3879
729 1 1.38181 20.7348 16.3839
730 1 3.16956 20.7584 14.5768
731 1 4.92995 20.729 16.3678
732 1 0.469979 23.3763 15.4731
733 1 1.35605 24.2898 16.4026
734 1 3.15902 24.264 14.6034
735 1 4.94335 24.3 16.3602
736 1 1.40723 20.6814 26.9979
737 1 4.90658 24.3146 19.9542
738 1 4.03026 23.4318 19.1099
739 1 3.98805 21.6259 17.2815
740 1 4.90206 22.4708 18.1741
741 1 2.24904 23.4054 17.2716
742 1 1.40622 22.4787 18.1573
743 1 2.23273 21.6264 19.0321
744 1 3.15887 20.7226 18.1581
745 1 4.97522 20.6842 19.9366
746 1 1.34309 20.7337 19.968
747 1 3.13013 22.5414 19.9121
748 1 0.45471 23.3956 19.0419
749 1 0.491839 21.6326 17.2842
750 1 1.36513 24.3285 19.9775
751 1 3.16654 24.2612 18.218
752 1 3.16556 24.2889 21.7194
753 1 4.97133 24.2782 23.5525
754 1 0.431368 21.6351 20.8535
755 1 3.16884 20.7786 21.7545
756 1 2.28033 21.6829 22.6212
757 1 1.37815 22.5145 21.7456
758 1 2.27356 23.374 20.824
759 1 4.99874 22.506 21.7646
760 1 4.08557 21.6318 20.8381
761 1 4.08268 23.387 22.675
762 1 0.480721 23.3662 22.6345
763 1 3.21448 22.5298 23.5551
764 1 4.93592 20.7334 23.5135
765 1 1.36428 20.7258 23.5268
766 1 1.41162 24.3019 23.5109
767 1 1.37502 24.3773 27.0248
768 1 0.503865 23.4354 26.2003
769 1 4.10517 23.4322 26.2675
770 1 4.08825 21.6186 24.4548
771 1 2.3212 23.3866 24.4586
772 1 4.94625 22.5231 25.3153
773 1 0.468189 21.6263 24.4455
774 1 3.21758 24.2976 25.3854
775 1 3.19433 20.7275 25.3526
776 1 1.37849 22.4842 25.3224
777 1 2.32796 21.6124 26.2178
778 1 5.01927 20.7088 27.0122
779 1 5.05148 24.2648 27.1303
780 1 3.21494 22.482 27.0923
781 1 0.448589 21.6172 13.7356
782 1 2.24848 23.3999 13.6953
783 1 0.87656 26.2499 -6.84276
784 1 1.85382 26.1971 -7.7689
785 1 2.70806 26.2574 -8.85907
786 2 3.56759 28.2954 -8.37808
787 2 2.91321 25.3464 -9.50688
788 1 3.53495 27.3967 -9.06573
789 1 0.144762 27.3804 -6.6231
790 2 0.68855 25.343 -6.23159
791 1 1.39894 27.6155 -1.40396
792 1 1.19743 26.1195 -1.32476
793 1 2.62296 27.97 -0.728082
794 1 3.3451 26.7231 -0.66208
795 1 2.57385 25.6419 -1.06839
796 1 4.78146 26.5173 -0.424676
797 2 5.33478 27.397 -0.487957
798 1 5.44497 25.5354 -1.43785
799 1 0.933805 28.2755 -2.55209
800 1 4.0009 26.9534 11.9317
801 2 0.198107 27.6946 -3.155
802 2 2.76962 24.5726 -1.16584
803 1 0.887945 25.3366 2.77427
804 1 2.03765 27.8198 1.94143
805 1 3.84904 26.259 1.98568
806 1 4.74624 25.8939 0.922678
807 1 4.32866 26.8959 3.13744
808 2 1.47728 26.9482 2.31329
809 2 2.78482 27.5625 1.17364
810 2 5.25682 27.5987 1.18343
811 2 2.80117 25.958 1.86329
812 2 1.57884 24.7077 2.26565
813 1 1.3697 27.8784 12.8472
814 2 3.85897 25.4121 3.99859
815 2 2.53018 27.1479 4.31192
816 1 1.25449 25.9623 4.00385
817 1 3.63377 27.1909 4.5038
818 1 4.72781 27.9492 5.59675
819 1 1.35575 27.911 5.6063
820 1 2.27823 25.1557 4.79497
821 1 3.11287 26.1009 5.67898
822 1 2.23704 27.0151 6.54617
823 1 4.08755 25.1709 6.52718
824 1 0.449069 25.2515 6.55835
825 1 0.471443 26.9993 4.77897
826 2 4.84436 26.1293 5.23196
827 2 5.27239 26.5072 4.70746
828 2 5.46745 25.1733 3.78309
829 1 4.90101 26.1081 11.0002
830 1 4.03304 27.0094 8.31624
831 1 4.88237 27.9328 9.2378
832 1 4.92846 26.1004 7.43591
833 1 1.34622 27.856 9.26902
834 1 2.24297 25.2498 8.29844
835 1 3.15437 26.0828 9.19898
836 1 1.3463 26.0947 7.44331
837 1 3.12883 27.8607 7.42765
838 1 0.432698 27.0036 8.32354
839 1 3.99763 25.2255 10.1013
840 1 2.2657 26.9836 10.122
841 1 0.444584 25.2039 10.0939
842 1 4.89972 27.8688 12.8093
843 1 0.447275 27.0204 11.9361
844 1 3.09907 26.0379 12.7923
845 1 2.24141 25.166 11.9372
846 1 1.33715 26.1146 10.9976
847 1 3.13126 27.8531 11.0281
848 2 1.27188 28.4609 1.47825
849 1 4.03194 25.2207 13.6812
850 2 4.47495 27.3885 -9.68221
851 1 4.94913 26.1145 14.589
852 1 1.3649 26.0438 14.6032
853 1 3.12091 27.8553 14.598
854 1 2.25516 25.1195 15.4751
855 1 4.94422 27.8364 16.4117
856 1 4.04829 26.9011 15.4959
857 1 1.32811 27.8724 16.3644
858 1 3.13994 26.0258 16.3277
859 1 0.50647 26.9504 15.5086
860 1 2.25727 26.9652 13.7152
861 1 3.98452 26.9565 19.0937
862 1 4.92589 26.0987 18.1701
863 1 4.04973 25.1396 17.2802
864 1 1.29837 26.0732 18.1643
865 1 2.21252 25.1944 19.0588
866 1 2.25513 26.9613 17.2606
867 1 3.12825 27.8274 18.1837
868 1 4.95149 27.8552 19.952
869 1 1.35568 27.88 20.0317
870 1 3.10936 26.1039 19.9843
871 1 0.470065 26.9657 19.146
872 1 0.450316 25.2238 17.2571
873 1 3.18866 27.893 21.7531
874 1 2.27164 26.9915 20.8619
875 1 2.29053 25.1754 22.666
876 1 1.42139 26.1034 21.7682
877 1 4.06331 25.2225 20.8279
878 1 4.94887 26.0927 21.7587
879 1 4.03581 27.0325 22.6183
880 1 0.472439 26.9837 22.6458
881 1 0.517827 25.2005 20.8946
882 1 4.94723 27.8912 23.5421
883 1 1.3786 27.8822 23.5299
884 1 3.21363 26.0173 23.5409
885 1 4.11456 25.1684 24.4563
886 1 2.27603 25.2681 26.2537
887 1 1.3627 26.128 25.3413
888 1 2.28047 26.9472 24.3701
889 1 0.472694 26.9883 26.2191
890 1 4.05409 26.9734 26.1845
891 1 0.449618 25.2072 24.4581
892 1 4.9974 26.0662 25.3072
893 1 3.18261 27.8606 25.2761
894 1 3.19535 26.1322 27.0554
895 1 1.4014 27.8915 27.1366
896 1 4.95132 27.9098 27.0402
897 1 0.432826 25.1838 13.7232
898 2 10.9696 3.92383 -12.3744
899 2 10.725 3.30496 -12.0552
900 2 8.06379 3.3647 -7.26748
901 2 8.87464 1.20744 -6.5359
902 1 7.14622 3.86772 -7.0565
903 1 6.24165 3.94794 -8.13041
904 1 9.4245 1.84952 -5.84419
905 1 8.81932 2.86847 -5.15024
906 1 7.80383 3.78588 -4.8014
907 1 10.2261 0.36292 -3.05354
908 1 9.36215 0.243358 11.9372
909 2 6.50191 3.43405 -9.07685
910 1 5.8021 2.03071 6.59261
911 2 10.5023 1.9619 -6.15174
912 1 10.2814 2.90761 11.0407
913 2 10.7975 2.48624 -0.325957
914 2 6.38183 3.90568 -0.421133
915 2 8.88592 2.26536 -2.9028
916 2 7.04736 0.807702 -0.232923
917 1 8.19964 2.93189 -2.32892
918 2 7.50054 2.56244 -1.53205
919 1 10.8041 1.12706 -2.14527
920 2 9.49669 0.141835 -0.178338
921 2 6.17678 2.27002 0.387113
922 2 7.86409 2.21753 0.587703
923 1 7.56083 1.15398 0.64507
924 1 9.75295 0.764981 1.96387
925 1 6.54123 0.76668 1.78593
926 1 7.33471 0.25194 3.07154
927 1 10.4954 3.17257 2.30793
928 1 9.05469 1.85457 2.78583
929 2 8.46723 2.422 2.18661
930 1 6.28616 3.41998 0.506391
931 1 7.45677 3.7569 2.94769
932 1 6.02377 1.75794 2.95265
933 1 7.40212 3.83805 1.51409
934 1 8.93948 0.30748 0.795725
935 1 7.00373 2.60858 3.5618
936 1 9.90107 2.84568 3.78349
937 1 11.1613 3.76279 6.53583
938 1 8.35982 1.08266 3.83113
939 1 10.9489 1.96266 4.56106
940 1 7.60177 1.99113 4.82102
941 1 8.44536 2.8944 5.69178
942 1 10.1947 1.17636 5.62492
943 1 6.64991 1.10233 5.6818
944 1 9.33531 2.04704 6.56619
945 1 7.54518 0.225122 6.5464
946 1 11.1377 0.27417 6.50289
947 1 9.23113 3.79353 4.7513
948 1 7.52791 3.7989 6.51721
949 1 9.31088 0.232828 4.72812
950 1 7.50298 4.03096 -3.33708
951 1 5.78224 0.216722 11.8977
952 1 6.64277 1.11944 12.796
953 1 5.79702 2.02283 10.0914
954 1 6.63417 2.93282 7.45043
955 1 11.146 1.99826 8.37673
956 1 7.55597 2.01229 8.3598
957 1 8.48418 2.92973 9.24792
958 1 10.2626 1.12508 9.21845
959 1 8.43542 1.14225 7.43039
960 1 10.2482 2.84687 7.43765
961 1 6.68709 1.12881 9.23347
962 1 9.34583 0.275806 8.32516
963 1 11.1139 0.221253 10.1179
964 1 7.54376 0.237233 10.1031
965 1 9.37004 2.00888 10.0869
966 1 9.35657 3.77249 8.2991
967 1 7.57685 3.84064 10.1379
968 1 11.1599 3.8118 10.1108
969 1 5.81945 0.226306 8.3269
970 1 5.78933 3.85457 8.28011
971 1 5.79769 3.79319 11.9098
972 2 11.328 3.72015 -6.52688
973 1 6.68001 2.89395 11.0072
974 1 10.2523 1.14445 12.8144
975 1 8.4485 2.91277 12.81
976 1 7.53772 1.98136 11.9151
977 1 8.44913 1.10707 10.9645
978 1 9.3612 3.82014 11.9161
979 1 11.1759 2.00738 11.9228
980 1 5.74973 0.208579 4.78284
981 1 8.55546 1.14871 14.5907
982 1 10.2692 2.92387 14.6453
983 1 6.68879 2.90088 14.6388
984 1 11.17 2.05886 15.5573
985 1 8.49959 2.88621 16.4088
986 1 10.3033 1.13462 16.3865
987 1 7.63963 2.00235 15.514
988 1 6.75051 1.12036 16.443
989 1 9.43821 0.251655 15.4755
990 1 9.37877 3.75801 15.5234
991 1 5.80774 0.246778 15.55