LAMMPS data file from restart file: timestep = 1, procs = 1

8 atoms

3 atom types

0 3.567 xlo xhi
0 3.567 ylo yhi
0 3.567 zlo zhi

Masses

1 12.011
2 2.0141
3 1.0079

Atoms

1 1 0.0000000000 0.0000000000 0.0000000000
2 1 0.0000000000 1.7835000000 1.7835000000
3 1 1.7835000000 0.0000000000 1.7835000000
4 1 1.7835000000 1.7835000000 0.0000000000
5 1 0.8917500000 0.8917500000 0.8917500000
6 1 0.8917500000 2.6752500000 2.6752500000
7 1 2.6752500000 0.8917500000 2.6752500000
8 1 2.6752500000 2.6752500000 0.8917500000