LAMMPS (3 Mar 2020)
units		metal
atom_style	atomic
variable	d uloop 10

boundary        p  p  f
read_data	data.diamond
  orthogonal box = (0 0 0) to (3.567 3.567 3.567)
  1 by 1 by 1 MPI processor grid
  reading atoms ...
  8 atoms
  read_data CPU = 0.00219393 secs
replicate     	4 4 10
WARNING: Replicating in a non-periodic dimension (../replicate.cpp:72)
  orthogonal box = (0 0 0) to (14.268 14.268 35.67)
  1 by 1 by 1 MPI processor grid
  1280 atoms
  replicate CPU = 0.000821829 secs
change_box      all z final  -20 107.387
  orthogonal box = (0 0 -20) to (14.268 14.268 107.387)
region		1 block 0 21.4774 0 21.4774 0 107.387
region		box block 0 21.4774 0 21.4774 -20.  -10.
group		car type 1
1280 atoms in group car

velocity	all create 1000 87287 rot yes dist gaussian

neighbor	0.5 bin
neigh_modify	delay 0 every 1 check yes
pair_style      rebo
pair_coeff      * * /Users/jamespittard/Documents/Culham/lammpsdepo/lammps/examples/airebo/CH.rebo C H
Reading potential file /Users/jamespittard/Documents/Culham/lammpsdepo/lammps/examples/airebo/CH.rebo with DATE: 2018-7-3
#pair_style	airebo 3.0 1 1
#pair_coeff	* * CH.airebo C H
pair_modify	shift yes

timestep 0.0001
thermo 		10
fix             1 all nve
fix		2 car temp/csld 1000 1000 0.1 53726
thermo_style 	custom step time temp press etotal vol

dump		2 all xyz 100 *.xyz

#dump            3 all movie 100 1500Khydrogen10H.avi type type zoom 6 up 0 0 -1 center s 0.5 0.5 0.2 view 90 20 box no 0 size 2056 2056

thermo_modify   lost warn
label           nextd
create_atoms	2 random 1 $d34$d74 box
create_atoms	2 random 1 134$d74 box
create_atoms	2 random 1 134174 box
Created 1 atoms
  create_atoms CPU = 2.09808e-05 secs
set             region box vx 0 vy 0 vz 500
  1 settings made for vx
  1 settings made for vy
  1 settings made for vz
velocity	all zero angular
run 500
Neighbor list info ...
  update every 1 steps, delay 0 steps, check yes
  max neighbors/atom: 2000, page size: 100000
  master list distance cutoff = 6.5
  ghost atom cutoff = 6.5
  binsize = 3.25, bins = 5 5 40
  1 neighbor lists, perpetual/occasional/extra = 1 0 0
  (1) pair rebo, perpetual
      attributes: full, newton on, ghost
      pair build: full/bin/ghost
      stencil: full/ghost/bin/3d
      bin: standard
Per MPI rank memory allocation (min/avg/max) = 5.955 | 5.955 | 5.955 Mbytes
Step Time Temp Press TotEng Volume 
       0            0    1078.1387    10894.038   -8974.5877    25932.913 
      10        0.001    1038.7594    11675.076   -8973.4396    25932.913 
      20        0.002    917.70385    13678.785   -8972.6774    25932.913 
      30        0.003    756.38865     16501.18   -8970.4602    25932.913 
      40        0.004    581.37766    19446.264    -8968.722    25932.913 
      50        0.005    427.40448    21863.407   -8968.0975    25932.913 
      60        0.006    343.86949    23429.065   -8965.0151    25932.913 
      70        0.007    323.73038    23838.266   -8962.5477    25932.913 
      80        0.008    371.27565    23264.797    -8959.257    25932.913 
      90        0.009    457.26161    22009.218   -8956.5555    25932.913 
     100         0.01    559.51885    20602.246   -8953.6541    25932.913 
     110        0.011     643.1801    19339.671   -8952.2442    25932.913 
     120        0.012    704.26154    18642.914   -8949.9537    25932.913 
     130        0.013    714.80322    18547.365   -8949.9523    25932.913 
     140        0.014    698.69382    19131.986   -8948.6901    25932.913 
     150        0.015    666.29693    20148.326   -8946.4389    25932.913 
     160        0.016    625.33313    21234.826    -8944.472    25932.913 
     170        0.017    591.02338    22062.202     -8943.12    25932.913 
     180        0.018    577.41821    22446.103   -8941.9512    25932.913 
     190        0.019    592.46269    22272.471   -8940.6728    25932.913 
     200         0.02    632.83971    21615.676   -8939.3136    25932.913 
     210        0.021    681.92387    20605.395   -8938.7992    25932.913 
     220        0.022    734.46534    19559.151   -8937.8288    25932.913 
     230        0.023    768.35566    18679.931   -8937.7345    25932.913 
     240        0.024    779.73566    18207.804    -8937.469    25932.913 
     250        0.025    762.91323    18216.625   -8937.4656    25932.913 
     260        0.026    730.52979    18701.655   -8936.3279    25932.913 
     270        0.027    687.63918        19411   -8934.8443    25932.913 
     280        0.028    643.85763    20131.006   -8933.6392    25932.913 
     290        0.029    615.97155    20697.721   -8932.5066    25932.913 
     300         0.03    641.88646    20837.336   -8930.5287    25932.913 
     310        0.031    654.43205    21390.973   -8929.5532    25932.913 
     320        0.032    621.69934    21432.643   -8929.2038    25932.913 
     330        0.033    713.50193     20243.15   -8928.0288    25932.913 
     340        0.034    767.26922    19518.119   -8927.0254    25932.913 
     350        0.035    785.35885    18685.639   -8927.6259    25932.913 
     360        0.036    784.43162     18326.45   -8927.8894    25932.913 
     370        0.037     776.4911    18514.763   -8927.4849    25932.913 
     380        0.038    761.43375    19537.196   -8926.6612    25932.913 
     390        0.039    730.48628    20435.451   -8925.3056    25932.913 
     400         0.04    697.07667    21181.465   -8924.1519    25932.913 
     410        0.041     661.0384    21318.058   -8923.6366    25932.913 
     420        0.042    637.23585    21552.314   -8922.1331    25932.913 
     430        0.043    648.90889    21593.489   -8920.6926    25932.913 
     440        0.044    676.66974    21184.196   -8919.7521    25932.913 
     450        0.045    721.06316     20675.71   -8917.5927    25932.913 
     460        0.046    777.83626     20989.53   -8915.6647    25932.913 
     470        0.047    813.93086    20417.909   -8914.3612    25932.913 
     480        0.048    835.64646    19915.003   -8913.0582    25932.913 
     490        0.049    837.46969    19710.435   -8912.5899    25932.913 
     500         0.05     798.0066    19492.234     -8912.51    25932.913 
Loop time of 4.18972 on 1 procs for 500 steps with 1281 atoms

Performance: 1.031 ns/day, 23.276 hours/ns, 119.340 timesteps/s
97.7% CPU use with 1 MPI tasks x no OpenMP threads

MPI task timing breakdown:
Section |  min time  |  avg time  |  max time  |%varavg| %total
---------------------------------------------------------------
Pair    | 2.2997     | 2.2997     | 2.2997     |   0.0 | 54.89
Neigh   | 1.7848     | 1.7848     | 1.7848     |   0.0 | 42.60
Comm    | 0.016496   | 0.016496   | 0.016496   |   0.0 |  0.39
Output  | 0.0090802  | 0.0090802  | 0.0090802  |   0.0 |  0.22
Modify  | 0.073441   | 0.073441   | 0.073441   |   0.0 |  1.75
Other   |            | 0.006159   |            |       |  0.15

Nlocal:    1281 ave 1281 max 1281 min
Histogram: 1 0 0 0 0 0 0 0 0 0
Nghost:    3533 ave 3533 max 3533 min
Histogram: 1 0 0 0 0 0 0 0 0 0
Neighs:    0 ave 0 max 0 min
Histogram: 1 0 0 0 0 0 0 0 0 0
FullNghs:  226866 ave 226866 max 226866 min
Histogram: 1 0 0 0 0 0 0 0 0 0

Total # of neighbors = 226866
Ave neighs/atom = 177.101
Neighbor list builds = 82
Dangerous builds = 0

next d
Increment via next: value 3 on partition 0
jump SELF nextd
create_atoms	2 random 1 $d34$d74 box
create_atoms	2 random 1 334$d74 box
create_atoms	2 random 1 334374 box
Created 1 atoms
  create_atoms CPU = 2.40803e-05 secs
set             region box vx 0 vy 0 vz 500
  1 settings made for vx
  1 settings made for vy
  1 settings made for vz
velocity	all zero angular
run 500
Per MPI rank memory allocation (min/avg/max) = 5.955 | 5.955 | 5.955 Mbytes
Step Time Temp Press TotEng Volume 
     500         0.05    876.09637    20029.052   -8899.4766    25932.913 
     510        0.051    842.14075    20771.638   -8899.0085    25932.913 
     520        0.052    819.49745    21224.809    -8897.589    25932.913 
     530        0.053    805.46225    21719.316   -8895.2104    25932.913 
     540        0.054    793.59103    22085.885    -8893.792    25932.913 
     550        0.055    793.04532    22148.801   -8892.4467    25932.913 
     560        0.056    801.61027    21985.279    -8891.708    25932.913 
     570        0.057    823.62191    21642.562    -8890.504    25932.913 
     580        0.058    851.41599    21220.994   -8889.2495    25932.913 
     590        0.059    878.62771    20868.141   -8887.7574    25932.913 
     600         0.06    898.02726    20606.687   -8886.5654    25932.913 
     610        0.061    903.42789    20600.673   -8885.9598    25932.913 
     620        0.062    898.77152    20835.104   -8885.1006    25932.913 
     630        0.063    880.34664     21221.16   -8885.0519    25932.913 
     640        0.064    860.80021    21675.869   -8884.5849    25932.913 
     650        0.065    845.50173    22069.215   -8883.6394    25932.913 
     660        0.066    838.39363    22323.778   -8881.9837    25932.913 
     670        0.067    838.29721    22463.906   -8880.3516    25932.913 
     680        0.068    850.02431    22590.716   -8877.7186    25932.913 
     690        0.069    853.97077     22514.36   -8877.1993    25932.913 
     700         0.07    867.81199    22389.689   -8875.5779    25932.913 
     710        0.071    883.07246    22195.926   -8873.5956    25932.913 
     720        0.072    887.05767    21998.635   -8872.9334    25932.913 
     730        0.073    889.86507    21930.316   -8872.0769    25932.913 
     740        0.074    900.43666    22290.851   -8869.5628    25932.913 
     750        0.075    891.27816    22419.828   -8870.0334    25932.913 
     760        0.076    889.79988    22404.688   -8869.5224    25932.913 
     770        0.077    889.33195    22349.044   -8869.3364    25932.913 
     780        0.078     894.1828    22307.942   -8868.8187    25932.913 
     790        0.079    919.80642    21955.103   -8868.2499    25932.913 
     800         0.08    926.19226    23366.816   -8868.1301    25932.913 
     810        0.081    907.60703    22652.128   -8867.2146    25932.913 
     820        0.082    918.22367    23485.565   -8865.9475    25932.913 
     830        0.083     953.9782    21667.897   -8864.9091    25932.913 
     840        0.084    952.18805    22548.076     -8864.35    25932.913 
     850        0.085    905.13201    23407.377   -8864.9404    25932.913 
     860        0.086    891.98278    23149.113   -8863.1943    25932.913 
     870        0.087    869.30955    22906.721   -8863.3581    25932.913 
     880        0.088    858.99962     22895.38   -8863.7071    25932.913 
     890        0.089    865.79364    23553.968   -8862.9724    25932.913 
     900         0.09    877.84892    22333.601   -8862.4032    25932.913 
     910        0.091    881.22373    21779.672   -8861.3105    25932.913 
     920        0.092    905.94073    22525.075   -8859.9449    25932.913 
     930        0.093    915.26681    22264.946   -8859.8424    25932.913 
     940        0.094    920.77828    22233.006   -8860.5059    25932.913 
     950        0.095    926.27018    22402.451   -8860.8956    25932.913 
     960        0.096    929.84759    22384.167    -8860.509    25932.913 
     970        0.097    934.09943    22157.803   -8859.4493    25932.913 
     980        0.098    928.47277    21927.897   -8859.3476    25932.913 
     990        0.099    919.93431    21963.637   -8859.1275    25932.913 
    1000          0.1    904.87983      22165.4   -8859.4383    25932.913 
Loop time of 4.15973 on 1 procs for 500 steps with 1282 atoms

Performance: 1.039 ns/day, 23.110 hours/ns, 120.200 timesteps/s
97.1% CPU use with 1 MPI tasks x no OpenMP threads

MPI task timing breakdown:
Section |  min time  |  avg time  |  max time  |%varavg| %total
---------------------------------------------------------------
Pair    | 2.3317     | 2.3317     | 2.3317     |   0.0 | 56.06
Neigh   | 1.7219     | 1.7219     | 1.7219     |   0.0 | 41.39
Comm    | 0.016869   | 0.016869   | 0.016869   |   0.0 |  0.41
Output  | 0.011227   | 0.011227   | 0.011227   |   0.0 |  0.27
Modify  | 0.072269   | 0.072269   | 0.072269   |   0.0 |  1.74
Other   |            | 0.005726   |            |       |  0.14

Nlocal:    1282 ave 1282 max 1282 min
Histogram: 1 0 0 0 0 0 0 0 0 0
Nghost:    3536 ave 3536 max 3536 min
Histogram: 1 0 0 0 0 0 0 0 0 0
Neighs:    0 ave 0 max 0 min
Histogram: 1 0 0 0 0 0 0 0 0 0
FullNghs:  226476 ave 226476 max 226476 min
Histogram: 1 0 0 0 0 0 0 0 0 0

Total # of neighbors = 226476
Ave neighs/atom = 176.658
Neighbor list builds = 79
Dangerous builds = 0

next d
Increment via next: value 4 on partition 0
jump SELF nextd
create_atoms	2 random 1 $d34$d74 box
create_atoms	2 random 1 434$d74 box
create_atoms	2 random 1 434474 box
Created 1 atoms
  create_atoms CPU = 1.71661e-05 secs
set             region box vx 0 vy 0 vz 500
  1 settings made for vx
  1 settings made for vy
  1 settings made for vz
velocity	all zero angular
run 500
Per MPI rank memory allocation (min/avg/max) = 5.956 | 5.956 | 5.956 Mbytes
Step Time Temp Press TotEng Volume 
    1000          0.1    981.74178    22694.822   -8846.5845    25932.913 
    1010        0.101    973.79171    22792.792   -8846.3114    25932.913 
    1020        0.102    968.29929    22936.544   -8846.6313    25932.913 
    1030        0.103    982.71583    23061.119   -8844.3746    25932.913 
    1040        0.104    992.40864    22856.871   -8843.6129    25932.913 
    1050        0.105    994.09689    22989.646   -8843.8874    25932.913 
    1060        0.106    997.12446    23133.659   -8843.5858    25932.913 
    1070        0.107    1002.0677    22915.914   -8843.1844    25932.913 
    1080        0.108    1001.5547    22739.988   -8843.4984    25932.913 
    1090        0.109    1008.9286    23271.145   -8842.0816    25932.913 
    1100         0.11    1012.4493    23171.529   -8841.4362    25932.913 
    1110        0.111    1008.6777    23327.879   -8842.1338    25932.913 
    1120        0.112    983.55144      24312.6   -8842.6459    25932.913 
    1130        0.113    990.67395    23006.977   -8843.3829    25932.913 
    1140        0.114    988.16271    22787.759   -8842.5164    25932.913 
    1150        0.115    986.88664    22605.366   -8842.5059    25932.913 
    1160        0.116    992.52938    22049.006    -8842.103    25932.913 
    1170        0.117     995.5566    21681.736   -8841.6202    25932.913 
    1180        0.118    1005.7317     22135.39   -8840.5165    25932.913 
    1190        0.119    1019.5455    22186.719   -8839.4835    25932.913 
    1200         0.12    1031.4659    21614.872   -8838.3079    25932.913 
    1210        0.121    1036.3887    21166.865   -8837.6344    25932.913 
    1220        0.122    1041.0645    21076.462    -8836.945    25932.913 
    1230        0.123    1040.3501    21185.528   -8837.4386    25932.913 
    1240        0.124    1039.9493    21214.915   -8837.3437    25932.913 
    1250        0.125    1034.0585    21106.979   -8837.9185    25932.913 
    1260        0.126    1030.2951    20876.162   -8838.2182    25932.913 
    1270        0.127    1025.7949    20564.652   -8838.6582    25932.913 
    1280        0.128    1033.3206    20561.962   -8836.8761    25932.913 
    1290        0.129    1038.0628    20368.441   -8835.6367    25932.913 
    1300         0.13    1038.0471    20318.883   -8835.2624    25932.913 
    1310        0.131    1032.7672    20156.635   -8835.7085    25932.913 
    1320        0.132    1030.2889    20084.913    -8835.452    25932.913 
    1330        0.133     1023.535    20214.997   -8836.3474    25932.913 
    1340        0.134    1021.4607    20814.015   -8836.0724    25932.913 
    1350        0.135    1019.9805    20845.205   -8834.9749    25932.913 
    1360        0.136    1028.8739    20510.849   -8833.5009    25932.913 
    1370        0.137    1051.1444      20440.6   -8833.2549    25932.913 
    1380        0.138    1015.1087    20986.034   -8833.5569    25932.913 
    1390        0.139    967.61447    21534.366   -8832.8968    25932.913 
    1400         0.14     1003.431    21419.486   -8833.6369    25932.913 
    1410        0.141    1010.5083    19877.842   -8833.4051    25932.913 
    1420        0.142    1012.3353    20157.164    -8832.903    25932.913 
    1430        0.143    1016.9781    20307.447   -8832.5294    25932.913 
    1440        0.144    1019.1369    20562.236   -8832.5313    25932.913 
    1450        0.145    1027.9266    20685.065   -8831.5167    25932.913 
    1460        0.146     1028.867    20549.039   -8831.7416    25932.913 
    1470        0.147     1027.881    20513.101   -8832.1256    25932.913 
    1480        0.148    1031.1559    20547.031   -8831.5868    25932.913 
    1490        0.149    1028.2728    20526.719   -8831.3601    25932.913 
    1500         0.15    1026.4439    20507.111   -8830.6924    25932.913 
Loop time of 4.67765 on 1 procs for 500 steps with 1283 atoms

Performance: 0.924 ns/day, 25.987 hours/ns, 106.891 timesteps/s
97.1% CPU use with 1 MPI tasks x no OpenMP threads

MPI task timing breakdown:
Section |  min time  |  avg time  |  max time  |%varavg| %total
---------------------------------------------------------------
Pair    | 2.4315     | 2.4315     | 2.4315     |   0.0 | 51.98
Neigh   | 2.1378     | 2.1378     | 2.1378     |   0.0 | 45.70
Comm    | 0.018639   | 0.018639   | 0.018639   |   0.0 |  0.40
Output  | 0.0086803  | 0.0086803  | 0.0086803  |   0.0 |  0.19
Modify  | 0.074884   | 0.074884   | 0.074884   |   0.0 |  1.60
Other   |            | 0.006098   |            |       |  0.13

Nlocal:    1283 ave 1283 max 1283 min
Histogram: 1 0 0 0 0 0 0 0 0 0
Nghost:    3537 ave 3537 max 3537 min
Histogram: 1 0 0 0 0 0 0 0 0 0
Neighs:    0 ave 0 max 0 min
Histogram: 1 0 0 0 0 0 0 0 0 0
FullNghs:  226098 ave 226098 max 226098 min
Histogram: 1 0 0 0 0 0 0 0 0 0

Total # of neighbors = 226098
Ave neighs/atom = 176.226
Neighbor list builds = 95
Dangerous builds = 0

next d
Increment via next: value 7 on partition 0
jump SELF nextd
create_atoms	2 random 1 $d34$d74 box
create_atoms	2 random 1 734$d74 box
create_atoms	2 random 1 734774 box
Created 1 atoms
  create_atoms CPU = 9.77516e-06 secs
set             region box vx 0 vy 0 vz 500
  2 settings made for vx
  2 settings made for vy
  2 settings made for vz
velocity	all zero angular
run 500
Per MPI rank memory allocation (min/avg/max) = 5.956 | 5.956 | 5.956 Mbytes
Step Time Temp Press TotEng Volume 
    1500         0.15    1132.6182    21237.811   -8812.9517    25932.913 
    1510        0.151    1133.6167    21054.275   -8811.6775    25932.913 
    1520        0.152    1126.1277    21106.902   -8811.6394    25932.913 
    1530        0.153    1129.2436     21068.34   -8810.2721    25932.913 
    1540        0.154    1124.4113    20821.937   -8811.3485    25932.913 
    1550        0.155    1137.3048    20772.097   -8809.7382    25932.913 
    1560        0.156    1139.8248    20723.231   -8809.8612    25932.913 
    1570        0.157    1148.0397    20825.628   -8809.1005    25932.913 
    1580        0.158    1155.9829    21026.095   -8808.3085    25932.913 
    1590        0.159      1162.08    21262.718   -8807.3734    25932.913 
    1600         0.16    1155.9346    21366.821   -8807.9051    25932.913 
    1610        0.161    1155.4461     21729.83   -8807.2681    25932.913 
    1620        0.162    1147.8747    22058.712   -8807.8573    25932.913 
    1630        0.163    1145.0354    22098.113   -8807.8201    25932.913 
    1640        0.164    1147.9786    21811.924   -8807.2206    25932.913 
    1650        0.165    1159.2026    21474.784   -8806.9315    25932.913 
    1660        0.166    1186.1246    22061.205   -8806.5655    25932.913 
    1670        0.167    1178.0317    23186.048   -8805.3889    25932.913 
    1680        0.168    1150.6315    22533.579   -8806.0078    25932.913 
    1690        0.169    1164.4815     21989.14   -8806.1847    25932.913 
    1700         0.17    1166.3872     22388.72   -8804.9169    25932.913 
    1710        0.171    1163.3047    22871.292   -8803.9368    25932.913 
    1720        0.172    1161.7902    23335.759   -8803.0383    25932.913 
    1730        0.173    1122.0011    24174.998   -8804.2593    25932.913 
    1740        0.174     1138.595    23033.175   -8805.1844    25932.913 
    1750        0.175     1143.408    22260.475   -8805.0898    25932.913 
    1760        0.176    1120.7798     23179.23   -8804.8362    25932.913 
    1770        0.177    1106.9677    22503.644   -8804.6301    25932.913 
    1780        0.178     1091.999    21457.367   -8804.8584    25932.913 
    1790        0.179    1117.1957    21384.816   -8804.9159    25932.913 
    1800         0.18    1143.6687     22767.06   -8804.6185    25932.913 
    1810        0.181    1176.0596    22273.448   -8804.6082    25932.913 
    1820        0.182    1148.3219    23409.454   -8804.6464    25932.913 
    1830        0.183    1139.6364    21478.953   -8806.0115    25932.913 
    1840        0.184    1125.4502    22093.068   -8804.8631    25932.913 
    1850        0.185    1113.8838    22787.687   -8804.3584    25932.913 
    1860        0.186    1136.3796    22483.922   -8803.2899    25932.913 
    1870        0.187    1139.0402    21730.213   -8803.8589    25932.913 
    1880        0.188    1152.7215     21626.27   -8802.7726    25932.913 
    1890        0.189    1155.1877    21203.102   -8803.9143    25932.913 
    1900         0.19    1153.5323     20857.03   -8804.8585    25932.913 
    1910        0.191    1147.0679    20720.858   -8805.1341    25932.913 
    1920        0.192    1136.8334    20863.589   -8804.9524    25932.913 
    1930        0.193    1123.9484    20548.914   -8804.5861    25932.913 
    1940        0.194    1112.9613    20707.305   -8804.5033    25932.913 
    1950        0.195    1108.2131     20717.71   -8804.8306    25932.913 
    1960        0.196     1046.941    19971.548    -8815.212    25932.913 
    1970        0.197    1055.6021    19638.822   -8814.3998    25932.913 
    1980        0.198    1057.5209    19881.414   -8814.4088    25932.913 
    1990        0.199    1053.4925    20110.793   -8813.7698    25932.913 
    2000          0.2    1046.5861    20458.846   -8813.0282    25932.913 
Loop time of 4.31107 on 1 procs for 500 steps with 1283 atoms

Performance: 1.002 ns/day, 23.950 hours/ns, 115.980 timesteps/s
97.7% CPU use with 1 MPI tasks x no OpenMP threads

MPI task timing breakdown:
Section |  min time  |  avg time  |  max time  |%varavg| %total
---------------------------------------------------------------
Pair    | 2.3972     | 2.3972     | 2.3972     |   0.0 | 55.61
Neigh   | 1.8077     | 1.8077     | 1.8077     |   0.0 | 41.93
Comm    | 0.017007   | 0.017007   | 0.017007   |   0.0 |  0.39
Output  | 0.0093727  | 0.0093727  | 0.0093727  |   0.0 |  0.22
Modify  | 0.07397    | 0.07397    | 0.07397    |   0.0 |  1.72
Other   |            | 0.005788   |            |       |  0.13

Nlocal:    1283 ave 1283 max 1283 min
Histogram: 1 0 0 0 0 0 0 0 0 0
Nghost:    3541 ave 3541 max 3541 min
Histogram: 1 0 0 0 0 0 0 0 0 0
Neighs:    0 ave 0 max 0 min
Histogram: 1 0 0 0 0 0 0 0 0 0
FullNghs:  225696 ave 225696 max 225696 min
Histogram: 1 0 0 0 0 0 0 0 0 0

Total # of neighbors = 225696
Ave neighs/atom = 175.913
Neighbor list builds = 84
Dangerous builds = 0

next d
Increment via next: value 9 on partition 0
jump SELF nextd
create_atoms	2 random 1 $d34$d74 box
create_atoms	2 random 1 934$d74 box
create_atoms	2 random 1 934974 box
Created 1 atoms
  create_atoms CPU = 1.28746e-05 secs
set             region box vx 0 vy 0 vz 500
  1 settings made for vx
  1 settings made for vy
  1 settings made for vz
velocity	all zero angular
run 500
Per MPI rank memory allocation (min/avg/max) = 5.956 | 5.956 | 5.956 Mbytes
Step Time Temp Press TotEng Volume 
    2000          0.2    1124.9436    20994.075   -8800.0333    25932.913 
    2010        0.201    1100.8436    21271.935   -8802.1002    25932.913 
    2020        0.202    1094.9336    21540.156   -8801.7902    25932.913 
    2030        0.203    1091.9497    21485.855    -8802.199    25932.913 
    2040        0.204    1098.5287    21248.016   -8802.0687    25932.913 
    2050        0.205    1110.1805    20991.868    -8801.776    25932.913 
    2060        0.206    1132.5483    20706.966   -8800.2654    25932.913 
    2070        0.207    1143.4895     20465.79   -8800.6924    25932.913 
    2080        0.208     1150.539     20271.24   -8801.2779    25932.913 
    2090        0.209    1155.8293    20180.336   -8801.3625    25932.913 
    2100         0.21    1150.4057    19780.989   -8802.2068    25932.913 
    2110        0.211    1144.4213    19424.058   -8802.0754    25932.913 
    2120        0.212    1128.9503    19400.522   -8803.0648    25932.913 
    2130        0.213    1121.4063    19131.282    -8802.761    25932.913 
    2140        0.214    1118.8371    19078.066   -8802.0417    25932.913 
    2150        0.215    1110.3724    19202.583   -8803.4908    25932.913 
    2160        0.216    1115.9349    19056.466   -8803.1253    25932.913 
    2170        0.217     1125.876    18833.922   -8802.5612    25932.913 
    2180        0.218    1133.1883    18605.493   -8802.6868    25932.913 
    2190        0.219    1146.0017     18370.31   -8802.1771    25932.913 
    2200         0.22    1162.6027    18129.716   -8801.2761    25932.913 
    2210        0.221    1158.9759    18287.114    -8803.018    25932.913 
    2220        0.222    1158.8129    18361.211   -8802.8922    25932.913 
    2230        0.223    1133.8598    19030.851   -8803.9354    25932.913 
    2240        0.224    1117.7519    18974.107   -8803.6464    25932.913 
    2250        0.225    1072.2452    19015.512    -8804.507    25932.913 
    2260        0.226    1068.9083    18943.029   -8803.5396    25932.913 
    2270        0.227    1085.9492     18909.48   -8804.3046    25932.913 
    2280        0.228    1086.6601     18911.44   -8804.5821    25932.913 
    2290        0.229    1078.9865    18483.422   -8804.9148    25932.913 
    2300         0.23    1076.2613    19141.024   -8805.3502    25932.913 
    2310        0.231    1094.3946    18544.955   -8805.4013    25932.913 
    2320        0.232    1113.8506    18139.757   -8804.8215    25932.913 
    2330        0.233    1122.3158    18169.564   -8805.0423    25932.913 
    2340        0.234    1122.8007     18257.27   -8805.4711    25932.913 
    2350        0.235    1116.4411    18070.951   -8806.1331    25932.913 
    2360        0.236    1109.7744    17810.535   -8805.4359    25932.913 
    2370        0.237    1092.3252    17761.253   -8805.7286    25932.913 
    2380        0.238    1085.8402    17967.409   -8804.5712    25932.913 
    2390        0.239    1070.5978    18008.263   -8805.4566    25932.913 
    2400         0.24    1068.1895    17877.489   -8804.9071    25932.913 
    2410        0.241    1067.1317    17480.961   -8805.0844    25932.913 
    2420        0.242    1083.6926    16902.539   -8803.6866    25932.913 
    2430        0.243    1110.0825    16715.455   -8802.3688    25932.913 
    2440        0.244    1141.7699    16619.648   -8800.8732    25932.913 
    2450        0.245    1150.9684    16362.781   -8802.1682    25932.913 
    2460        0.246    1151.2799    16225.727   -8803.1833    25932.913 
    2470        0.247    1144.7629    16366.071   -8803.6191    25932.913 
    2480        0.248    1132.8146    16562.082   -8803.2132    25932.913 
    2490        0.249    1115.4492    16981.098   -8802.5335    25932.913 
    2500         0.25    1093.2432    17435.487   -8802.2748    25932.913 
Loop time of 4.3688 on 1 procs for 500 steps with 1284 atoms

Performance: 0.989 ns/day, 24.271 hours/ns, 114.448 timesteps/s
98.3% CPU use with 1 MPI tasks x no OpenMP threads

MPI task timing breakdown:
Section |  min time  |  avg time  |  max time  |%varavg| %total
---------------------------------------------------------------
Pair    | 2.3317     | 2.3317     | 2.3317     |   0.0 | 53.37
Neigh   | 1.9329     | 1.9329     | 1.9329     |   0.0 | 44.24
Comm    | 0.017065   | 0.017065   | 0.017065   |   0.0 |  0.39
Output  | 0.0094841  | 0.0094841  | 0.0094841  |   0.0 |  0.22
Modify  | 0.071646   | 0.071646   | 0.071646   |   0.0 |  1.64
Other   |            | 0.005969   |            |       |  0.14

Nlocal:    1284 ave 1284 max 1284 min
Histogram: 1 0 0 0 0 0 0 0 0 0
Nghost:    3536 ave 3536 max 3536 min
Histogram: 1 0 0 0 0 0 0 0 0 0
Neighs:    0 ave 0 max 0 min
Histogram: 1 0 0 0 0 0 0 0 0 0
FullNghs:  225418 ave 225418 max 225418 min
Histogram: 1 0 0 0 0 0 0 0 0 0

Total # of neighbors = 225418
Ave neighs/atom = 175.559
Neighbor list builds = 90
Dangerous builds = 0

next d
Increment via next: value 10 on partition 0
jump SELF nextd
create_atoms	2 random 1 $d34$d74 box
create_atoms	2 random 1 1034$d74 box
create_atoms	2 random 1 10341074 box
Created 1 atoms
  create_atoms CPU = 2.69413e-05 secs
set             region box vx 0 vy 0 vz 500
  1 settings made for vx
  1 settings made for vy
  1 settings made for vz
velocity	all zero angular
run 500
Per MPI rank memory allocation (min/avg/max) = 5.956 | 5.956 | 5.956 Mbytes
Step Time Temp Press TotEng Volume 
    2500         0.25    1258.5253    19447.887   -8771.0347    25932.913 
    2510        0.251    1244.1191    19970.363   -8770.8285    25932.913 
    2520        0.252     1224.649    19830.061   -8771.2027    25932.913 
    2530        0.253    1207.4576    19844.347   -8772.6083    25932.913 
    2540        0.254    1212.4434     20126.69   -8772.5337    25932.913 
    2550        0.255    1225.7372     20334.09   -8771.3227    25932.913 
    2560        0.256    1231.3708    20135.939   -8771.6415    25932.913 
    2570        0.257    1234.1032    19520.525   -8772.0651    25932.913 
    2580        0.258    1239.5634    19157.122   -8771.4751    25932.913 
    2590        0.259    1233.4611    18431.291   -8772.8092    25932.913 
    2600         0.26    1246.9509    18474.463   -8771.3958    25932.913 
    2610        0.261    1251.0751    18855.658   -8770.8055    25932.913 
    2620        0.262    1249.0007    19466.028   -8771.4957    25932.913 
    2630        0.263    1249.0459    19749.911   -8772.2184    25932.913 
    2640        0.264    1253.6719    19920.768   -8771.9373    25932.913 
    2650        0.265    1264.9697    19722.151   -8770.8165    25932.913 
    2660        0.266    1266.0726    19651.623   -8771.7042    25932.913 
    2670        0.267    1272.3464    19702.217   -8771.9196    25932.913 
    2680        0.268    1278.6639    19689.834   -8772.0013    25932.913 
    2690        0.269    1276.0977    19732.877   -8773.0381    25932.913 
    2700         0.27    1277.5021    19542.698    -8772.679    25932.913 
    2710        0.271    1304.6875    19745.853    -8772.266    25932.913 
    2720        0.272    1267.9078    20788.728   -8772.2682    25932.913 
    2730        0.273    1242.0616    20886.519   -8772.5964    25932.913 
    2740        0.274     1221.298    20983.018   -8774.3975    25932.913 
    2750        0.275    1207.0085    21155.124   -8774.3437    25932.913 
    2760        0.276    1221.9596    21662.543   -8774.3868    25932.913 
    2770        0.277    1229.2386    20729.128   -8775.6186    25932.913 
    2780        0.278    1224.3714    20610.154   -8776.6532    25932.913 
    2790        0.279     1219.465    20736.561   -8777.7491    25932.913 
    2800         0.28    1212.1569    20954.665   -8777.5768    25932.913 
    2810        0.281     1217.613    21266.705   -8778.4506    25932.913 
    2820        0.282     1236.856    21810.748    -8778.213    25932.913 
    2830        0.283    1238.7254    21869.451   -8778.6388    25932.913 
    2840        0.284    1231.2626    22082.846    -8778.309    25932.913 
    2850        0.285    1218.1966     22366.87    -8778.782    25932.913 
    2860        0.286    1222.8912     22529.69   -8778.3988    25932.913 
    2870        0.287    1216.1099    22276.243   -8779.0258    25932.913 
    2880        0.288    1191.7874    22023.668   -8779.4594    25932.913 
    2890        0.289    1169.2944    21454.709   -8780.2479    25932.913 
    2900         0.29    1171.4616    20959.721   -8779.3244    25932.913 
    2910        0.291     1171.294    20921.247   -8779.4304    25932.913 
    2920        0.292     1163.928    20799.718    -8780.933    25932.913 
    2930        0.293    1169.2814    21039.261   -8780.6483    25932.913 
    2940        0.294    1173.6156    21884.516   -8780.6187    25932.913 
    2950        0.295    1151.9919    20597.847   -8788.2589    25932.913 
    2960        0.296    1181.9195     19943.78   -8787.8175    25932.913 
    2970        0.297    1186.0915    19840.795   -8789.1969    25932.913 
    2980        0.298    1183.3948    19721.818   -8790.0553    25932.913 
    2990        0.299    1194.5975    19539.137   -8789.3325    25932.913 
    3000          0.3    1196.4058    19061.748   -8788.9844    25932.913 
Loop time of 3.78776 on 1 procs for 500 steps with 1284 atoms

Performance: 1.141 ns/day, 21.043 hours/ns, 132.004 timesteps/s
97.4% CPU use with 1 MPI tasks x no OpenMP threads

MPI task timing breakdown:
Section |  min time  |  avg time  |  max time  |%varavg| %total
---------------------------------------------------------------
Pair    | 2.2122     | 2.2122     | 2.2122     |   0.0 | 58.40
Neigh   | 1.4805     | 1.4805     | 1.4805     |   0.0 | 39.09
Comm    | 0.015095   | 0.015095   | 0.015095   |   0.0 |  0.40
Output  | 0.010646   | 0.010646   | 0.010646   |   0.0 |  0.28
Modify  | 0.064062   | 0.064062   | 0.064062   |   0.0 |  1.69
Other   |            | 0.00529    |            |       |  0.14

Nlocal:    1284 ave 1284 max 1284 min
Histogram: 1 0 0 0 0 0 0 0 0 0
Nghost:    3538 ave 3538 max 3538 min
Histogram: 1 0 0 0 0 0 0 0 0 0
Neighs:    0 ave 0 max 0 min
Histogram: 1 0 0 0 0 0 0 0 0 0
FullNghs:  225688 ave 225688 max 225688 min
Histogram: 1 0 0 0 0 0 0 0 0 0

Total # of neighbors = 225688
Ave neighs/atom = 175.769
Neighbor list builds = 76
Dangerous builds = 0

next d
Increment via next: value 12 on partition 0
jump SELF nextd

Total wall time: 0:00:28
